<?xml version="1.0"?>

<!-- generated on 2014/10/23 ¤U¤È 04:55:16 by SUMO gui Version 0.12.3
<?xml version="1.0" encoding="iso-8859-1"?>

<configuration xmlns:xsi="http://www.w3.org/2001/XMLSchema-instance" xsi:noNamespaceSchemaLocation="http://sumo.sf.net/xsd/sumo-gui.exeConfiguration.xsd">

    <input>
        <net-file value="C:\Users\mikelei\Desktop\sumo-0.12.3\mikelei\gpsr_test\test.net.xml"/>
        <route-files value="C:\Users\mikelei\Desktop\sumo-0.12.3\mikelei\gpsr_test\test.rou.xml"/>
    </input>

    <output>
        <netstate-dump value="C:\Users\mikelei\Desktop\sumo-0.12.3\mikelei\gpsr_test\test.sumo.tr"/>
        <emissions-output value="C:\Users\mikelei\Desktop\sumo-0.12.3\mikelei\gpsr_test\output-emissions.xml"/>
        <tripinfo-output value="C:\Users\mikelei\Desktop\sumo-0.12.3\mikelei\gpsr_test\output-tripinfos.xml"/>
        <vehroute-output value="C:\Users\mikelei\Desktop\sumo-0.12.3\mikelei\gpsr_test\output-vehroutes.xml"/>
    </output>

    <time>
        <begin value="0"/>
        <end value="200"/>
    </time>

    <processing>
        <route-steps value="-1"/>
        <time-to-teleport value="-1"/>
    </processing>

    <report>
        <print-options value="false"/>
    </report>

    <random_number>
        <srand value="23423"/>
    </random_number>

    <gui_only>
        <gui-settings-file value=""/>
    </gui_only>

</configuration>
-->

<tripinfos>
    <tripinfo id="t21" depart="21.00" departLane="2/4to1/4_0" departPos="7.60" departSpeed="0.00" departDelay="0.00" arrival="43.00" arrivalLane="1/4to0/4_0" arrivalPos="2.24" arrivalSpeed="12.99" duration="22.00" routeLength="235.14" waitSteps="0" rerouteNo="0" devices="vehroute_t21 tripinfo_t21" vtype="DEFAULT_VEHTYPE" vaporized="">
    </tripinfo>
    <tripinfo id="t2" depart="2.00" departLane="2/0to1/0_0" departPos="7.60" departSpeed="0.00" departDelay="0.00" arrival="44.00" arrivalLane="1/1to1/0_0" arrivalPos="4.47" arrivalSpeed="7.11" duration="42.00" routeLength="477.87" waitSteps="0" rerouteNo="0" devices="vehroute_t2 tripinfo_t2" vtype="DEFAULT_VEHTYPE" vaporized="">
    </tripinfo>
    <tripinfo id="t13" depart="13.00" departLane="0/3to0/4_0" departPos="7.60" departSpeed="0.00" departDelay="0.00" arrival="53.00" arrivalLane="1/4to2/4_0" arrivalPos="1.18" arrivalSpeed="13.17" duration="40.00" routeLength="477.58" waitSteps="0" rerouteNo="0" devices="vehroute_t13 tripinfo_t13" vtype="DEFAULT_VEHTYPE" vaporized="">
    </tripinfo>
    <tripinfo id="t19" depart="19.00" departLane="3/3to3/2_0" departPos="7.60" departSpeed="0.00" departDelay="0.00" arrival="62.00" arrivalLane="3/1to4/1_0" arrivalPos="8.00" arrivalSpeed="8.50" duration="43.00" routeLength="481.40" waitSteps="0" rerouteNo="0" devices="vehroute_t19 tripinfo_t19" vtype="DEFAULT_VEHTYPE" vaporized="">
    </tripinfo>
    <tripinfo id="t17" depart="17.00" departLane="4/1to3/1_0" departPos="7.60" departSpeed="0.00" departDelay="0.00" arrival="65.00" arrivalLane="2/1to3/1_0" arrivalPos="4.55" arrivalSpeed="7.43" duration="48.00" routeLength="477.95" waitSteps="0" rerouteNo="0" devices="vehroute_t17 tripinfo_t17" vtype="DEFAULT_VEHTYPE" vaporized="">
    </tripinfo>
    <tripinfo id="t43" depart="43.00" departLane="0/1to1/1_0" departPos="7.60" departSpeed="0.00" departDelay="0.00" arrival="67.00" arrivalLane="1/1to1/2_0" arrivalPos="1.30" arrivalSpeed="8.31" duration="24.00" routeLength="234.20" waitSteps="0" rerouteNo="0" devices="vehroute_t43 tripinfo_t43" vtype="DEFAULT_VEHTYPE" vaporized="">
    </tripinfo>
    <tripinfo id="t0" depart="0.00" departLane="2/2to1/2_0" departPos="7.60" departSpeed="0.00" departDelay="0.00" arrival="68.00" arrivalLane="0/1to0/2_0" arrivalPos="6.83" arrivalSpeed="7.40" duration="68.00" routeLength="720.73" waitSteps="0" rerouteNo="0" devices="vehroute_t0 tripinfo_t0" vtype="DEFAULT_VEHTYPE" vaporized="">
    </tripinfo>
    <tripinfo id="t52" depart="53.00" departLane="2/2to2/3_0" departPos="7.60" departSpeed="0.00" departDelay="1.00" arrival="74.00" arrivalLane="2/3to3/3_0" arrivalPos="2.80" arrivalSpeed="13.37" duration="21.00" routeLength="235.70" waitSteps="0" rerouteNo="0" devices="vehroute_t52 tripinfo_t52" vtype="DEFAULT_VEHTYPE" vaporized="">
    </tripinfo>
    <tripinfo id="t34" depart="34.00" departLane="4/2to4/1_0" departPos="7.60" departSpeed="0.00" departDelay="0.00" arrival="78.00" arrivalLane="3/1to2/1_0" arrivalPos="6.39" arrivalSpeed="7.85" duration="44.00" routeLength="479.79" waitSteps="0" rerouteNo="0" devices="vehroute_t34 tripinfo_t34" vtype="DEFAULT_VEHTYPE" vaporized="">
    </tripinfo>
    <tripinfo id="t55" depart="55.00" departLane="2/4to2/3_0" departPos="7.60" departSpeed="0.00" departDelay="0.00" arrival="79.00" arrivalLane="2/3to3/3_0" arrivalPos="2.16" arrivalSpeed="8.41" duration="24.00" routeLength="235.06" waitSteps="0" rerouteNo="0" devices="vehroute_t55 tripinfo_t55" vtype="DEFAULT_VEHTYPE" vaporized="">
    </tripinfo>
    <tripinfo id="t15" depart="15.00" departLane="3/4to4/4_0" departPos="7.60" departSpeed="0.00" departDelay="0.00" arrival="79.00" arrivalLane="2/4to2/3_0" arrivalPos="1.71" arrivalSpeed="8.93" duration="64.00" routeLength="718.61" waitSteps="0" rerouteNo="0" devices="vehroute_t15 tripinfo_t15" vtype="DEFAULT_VEHTYPE" vaporized="">
    </tripinfo>
    <tripinfo id="t16" depart="16.00" departLane="1/2to0/2_0" departPos="7.60" departSpeed="0.00" departDelay="0.00" arrival="82.00" arrivalLane="2/2to1/2_0" arrivalPos="7.22" arrivalSpeed="8.11" duration="66.00" routeLength="721.12" waitSteps="0" rerouteNo="0" devices="vehroute_t16 tripinfo_t16" vtype="DEFAULT_VEHTYPE" vaporized="">
    </tripinfo>
    <tripinfo id="t5" depart="5.00" departLane="2/4to1/4_0" departPos="7.60" departSpeed="0.00" departDelay="0.00" arrival="85.00" arrivalLane="4/4to4/3_0" arrivalPos="2.66" arrivalSpeed="13.17" duration="80.00" routeLength="958.56" waitSteps="0" rerouteNo="0" devices="vehroute_t5 tripinfo_t5" vtype="DEFAULT_VEHTYPE" vaporized="">
    </tripinfo>
    <tripinfo id="t28" depart="28.00" departLane="2/2to2/3_0" departPos="7.60" departSpeed="0.00" departDelay="0.00" arrival="92.00" arrivalLane="2/1to2/2_0" arrivalPos="6.39" arrivalSpeed="7.89" duration="64.00" routeLength="720.29" waitSteps="0" rerouteNo="0" devices="vehroute_t28 tripinfo_t28" vtype="DEFAULT_VEHTYPE" vaporized="">
    </tripinfo>
    <tripinfo id="t30" depart="30.00" departLane="3/2to2/2_0" departPos="7.60" departSpeed="0.00" departDelay="0.00" arrival="94.00" arrivalLane="2/0to1/0_0" arrivalPos="6.95" arrivalSpeed="8.27" duration="64.00" routeLength="720.85" waitSteps="0" rerouteNo="0" devices="vehroute_t30 tripinfo_t30" vtype="DEFAULT_VEHTYPE" vaporized="">
    </tripinfo>
    <tripinfo id="t27" depart="27.00" departLane="2/2to1/2_0" departPos="7.60" departSpeed="0.00" departDelay="0.00" arrival="96.00" arrivalLane="2/3to1/3_0" arrivalPos="1.18" arrivalSpeed="3.97" duration="69.00" routeLength="715.08" waitSteps="3" rerouteNo="0" devices="vehroute_t27 tripinfo_t27" vtype="DEFAULT_VEHTYPE" vaporized="">
    </tripinfo>
    <tripinfo id="t10" depart="10.00" departLane="1/3to0/3_0" departPos="7.60" departSpeed="0.00" departDelay="0.00" arrival="96.00" arrivalLane="1/1to1/0_0" arrivalPos="8.51" arrivalSpeed="9.28" duration="86.00" routeLength="962.91" waitSteps="0" rerouteNo="0" devices="vehroute_t10 tripinfo_t10" vtype="DEFAULT_VEHTYPE" vaporized="">
    </tripinfo>
    <tripinfo id="t8" depart="8.00" departLane="3/1to2/1_0" departPos="7.60" departSpeed="0.00" departDelay="0.00" arrival="97.00" arrivalLane="1/3to0/3_0" arrivalPos="6.38" arrivalSpeed="7.07" duration="89.00" routeLength="960.78" waitSteps="1" rerouteNo="0" devices="vehroute_t8 tripinfo_t8" vtype="DEFAULT_VEHTYPE" vaporized="">
    </tripinfo>
    <tripinfo id="t3" depart="3.00" departLane="2/2to3/2_0" departPos="7.60" departSpeed="0.00" departDelay="0.00" arrival="99.00" arrivalLane="1/3to1/2_0" arrivalPos="5.92" arrivalSpeed="7.08" duration="96.00" routeLength="960.32" waitSteps="0" rerouteNo="0" devices="vehroute_t3 tripinfo_t3" vtype="DEFAULT_VEHTYPE" vaporized="">
    </tripinfo>
    <tripinfo id="t79" depart="79.00" departLane="2/1to2/2_0" departPos="7.60" departSpeed="0.00" departDelay="0.00" arrival="101.00" arrivalLane="2/2to3/2_0" arrivalPos="11.06" arrivalSpeed="12.00" duration="22.00" routeLength="243.96" waitSteps="0" rerouteNo="0" devices="vehroute_t79 tripinfo_t79" vtype="DEFAULT_VEHTYPE" vaporized="">
    </tripinfo>
    <tripinfo id="t9" depart="9.00" departLane="1/1to1/2_0" departPos="7.60" departSpeed="0.00" departDelay="0.00" arrival="103.00" arrivalLane="3/3to3/2_0" arrivalPos="3.87" arrivalSpeed="7.02" duration="94.00" routeLength="958.27" waitSteps="7" rerouteNo="0" devices="vehroute_t9 tripinfo_t9" vtype="DEFAULT_VEHTYPE" vaporized="">
    </tripinfo>
    <tripinfo id="t33" depart="33.00" departLane="3/4to3/3_0" departPos="7.60" departSpeed="0.00" departDelay="0.00" arrival="104.00" arrivalLane="2/2to2/1_0" arrivalPos="5.04" arrivalSpeed="13.62" duration="71.00" routeLength="718.94" waitSteps="4" rerouteNo="0" devices="vehroute_t33 tripinfo_t33" vtype="DEFAULT_VEHTYPE" vaporized="">
    </tripinfo>
    <tripinfo id="t65" depart="65.00" departLane="2/0to1/0_0" departPos="7.60" departSpeed="0.00" departDelay="0.00" arrival="105.00" arrivalLane="0/0to0/1_0" arrivalPos="7.30" arrivalSpeed="12.95" duration="40.00" routeLength="482.20" waitSteps="0" rerouteNo="0" devices="vehroute_t65 tripinfo_t65" vtype="DEFAULT_VEHTYPE" vaporized="">
    </tripinfo>
    <tripinfo id="t22" depart="22.00" departLane="2/2to3/2_0" departPos="7.60" departSpeed="0.00" departDelay="0.00" arrival="107.00" arrivalLane="2/0to3/0_0" arrivalPos="2.72" arrivalSpeed="9.32" duration="85.00" routeLength="957.12" waitSteps="0" rerouteNo="0" devices="vehroute_t22 tripinfo_t22" vtype="DEFAULT_VEHTYPE" vaporized="">
    </tripinfo>
    <tripinfo id="t14" depart="14.00" departLane="2/1to2/2_0" departPos="7.60" departSpeed="0.00" departDelay="0.00" arrival="109.00" arrivalLane="4/1to4/2_0" arrivalPos="9.22" arrivalSpeed="9.35" duration="95.00" routeLength="963.62" waitSteps="2" rerouteNo="0" devices="vehroute_t14 tripinfo_t14" vtype="DEFAULT_VEHTYPE" vaporized="">
    </tripinfo>
    <tripinfo id="t1" depart="1.00" departLane="1/0to0/0_0" departPos="7.60" departSpeed="0.00" departDelay="0.00" arrival="112.00" arrivalLane="2/2to3/2_0" arrivalPos="2.01" arrivalSpeed="5.49" duration="111.00" routeLength="1199.91" waitSteps="8" rerouteNo="0" devices="vehroute_t1 tripinfo_t1" vtype="DEFAULT_VEHTYPE" vaporized="">
    </tripinfo>
    <tripinfo id="t46" depart="46.00" departLane="0/1to1/1_0" departPos="7.60" departSpeed="0.00" departDelay="0.00" arrival="113.00" arrivalLane="1/3to0/3_0" arrivalPos="8.69" arrivalSpeed="9.33" duration="67.00" routeLength="722.59" waitSteps="0" rerouteNo="0" devices="vehroute_t46 tripinfo_t46" vtype="DEFAULT_VEHTYPE" vaporized="">
    </tripinfo>
    <tripinfo id="t29" depart="29.00" departLane="3/2to3/3_0" departPos="7.60" departSpeed="0.00" departDelay="0.00" arrival="116.00" arrivalLane="1/3to0/3_0" arrivalPos="0.40" arrivalSpeed="5.00" duration="87.00" routeLength="714.30" waitSteps="6" rerouteNo="0" devices="vehroute_t29 tripinfo_t29" vtype="DEFAULT_VEHTYPE" vaporized="">
    </tripinfo>
    <tripinfo id="t7" depart="7.00" departLane="0/1to0/2_0" departPos="7.60" departSpeed="0.00" departDelay="0.00" arrival="120.00" arrivalLane="3/1to4/1_0" arrivalPos="1.29" arrivalSpeed="5.35" duration="113.00" routeLength="1196.19" waitSteps="0" rerouteNo="0" devices="vehroute_t7 tripinfo_t7" vtype="DEFAULT_VEHTYPE" vaporized="">
    </tripinfo>
    <tripinfo id="t25" depart="25.00" departLane="0/4to0/3_0" departPos="7.60" departSpeed="0.00" departDelay="0.00" arrival="122.00" arrivalLane="3/3to4/3_0" arrivalPos="6.55" arrivalSpeed="7.84" duration="97.00" routeLength="962.45" waitSteps="0" rerouteNo="0" devices="vehroute_t25 tripinfo_t25" vtype="DEFAULT_VEHTYPE" vaporized="">
    </tripinfo>
    <tripinfo id="t78" depart="78.00" departLane="3/2to3/1_0" departPos="7.60" departSpeed="0.00" departDelay="0.00" arrival="122.00" arrivalLane="4/1to3/1_0" arrivalPos="6.10" arrivalSpeed="7.59" duration="44.00" routeLength="479.50" waitSteps="0" rerouteNo="0" devices="vehroute_t78 tripinfo_t78" vtype="DEFAULT_VEHTYPE" vaporized="">
    </tripinfo>
    <tripinfo id="t4" depart="4.00" departLane="2/2to2/3_0" departPos="7.60" departSpeed="0.00" departDelay="0.00" arrival="125.00" arrivalLane="4/0to4/1_0" arrivalPos="1.88" arrivalSpeed="13.47" duration="121.00" routeLength="1438.78" waitSteps="0" rerouteNo="0" devices="vehroute_t4 tripinfo_t4" vtype="DEFAULT_VEHTYPE" vaporized="">
    </tripinfo>
    <tripinfo id="t20" depart="23.00" departLane="1/2to1/3_0" departPos="7.60" departSpeed="0.00" departDelay="3.00" arrival="125.00" arrivalLane="4/4to3/4_0" arrivalPos="2.69" arrivalSpeed="6.03" duration="102.00" routeLength="1199.09" waitSteps="0" rerouteNo="0" devices="vehroute_t20 tripinfo_t20" vtype="DEFAULT_VEHTYPE" vaporized="">
    </tripinfo>
    <tripinfo id="t42" depart="42.00" departLane="4/4to3/4_0" departPos="7.60" departSpeed="0.00" departDelay="0.00" arrival="125.00" arrivalLane="1/3to1/4_0" arrivalPos="5.87" arrivalSpeed="7.96" duration="83.00" routeLength="961.77" waitSteps="0" rerouteNo="0" devices="vehroute_t42 tripinfo_t42" vtype="DEFAULT_VEHTYPE" vaporized="">
    </tripinfo>
    <tripinfo id="t62" depart="64.00" departLane="2/3to2/4_0" departPos="7.60" departSpeed="0.00" departDelay="2.00" arrival="126.00" arrivalLane="2/2to2/1_0" arrivalPos="5.72" arrivalSpeed="13.78" duration="62.00" routeLength="719.62" waitSteps="0" rerouteNo="0" devices="vehroute_t62 tripinfo_t62" vtype="DEFAULT_VEHTYPE" vaporized="">
    </tripinfo>
    <tripinfo id="t59" depart="59.00" departLane="1/1to1/2_0" departPos="7.60" departSpeed="0.00" departDelay="0.00" arrival="126.00" arrivalLane="2/1to1/1_0" arrivalPos="7.05" arrivalSpeed="8.29" duration="67.00" routeLength="720.95" waitSteps="0" rerouteNo="0" devices="vehroute_t59 tripinfo_t59" vtype="DEFAULT_VEHTYPE" vaporized="">
    </tripinfo>
    <tripinfo id="t48" depart="48.00" departLane="3/4to4/4_0" departPos="7.60" departSpeed="0.00" departDelay="0.00" arrival="126.00" arrivalLane="4/1to4/0_0" arrivalPos="4.53" arrivalSpeed="13.28" duration="78.00" routeLength="961.93" waitSteps="0" rerouteNo="0" devices="vehroute_t48 tripinfo_t48" vtype="DEFAULT_VEHTYPE" vaporized="">
    </tripinfo>
    <tripinfo id="t32" depart="32.00" departLane="1/2to2/2_0" departPos="7.60" departSpeed="0.00" departDelay="0.00" arrival="127.00" arrivalLane="0/1to0/2_0" arrivalPos="7.11" arrivalSpeed="8.69" duration="95.00" routeLength="961.51" waitSteps="2" rerouteNo="0" devices="vehroute_t32 tripinfo_t32" vtype="DEFAULT_VEHTYPE" vaporized="">
    </tripinfo>
    <tripinfo id="t35" depart="35.00" departLane="3/1to2/1_0" departPos="7.60" departSpeed="0.00" departDelay="0.00" arrival="128.00" arrivalLane="0/1to0/0_0" arrivalPos="0.12" arrivalSpeed="5.55" duration="93.00" routeLength="714.02" waitSteps="17" rerouteNo="0" devices="vehroute_t35 tripinfo_t35" vtype="DEFAULT_VEHTYPE" vaporized="">
    </tripinfo>
    <tripinfo id="t18" depart="18.00" departLane="3/4to2/4_0" departPos="7.60" departSpeed="0.00" departDelay="0.00" arrival="128.00" arrivalLane="3/1to2/1_0" arrivalPos="1.73" arrivalSpeed="4.14" duration="110.00" routeLength="1196.63" waitSteps="2" rerouteNo="0" devices="vehroute_t18 tripinfo_t18" vtype="DEFAULT_VEHTYPE" vaporized="">
    </tripinfo>
    <tripinfo id="t49" depart="49.00" departLane="1/2to1/1_0" departPos="7.60" departSpeed="0.00" departDelay="0.00" arrival="129.00" arrivalLane="0/3to0/4_0" arrivalPos="10.09" arrivalSpeed="13.16" duration="80.00" routeLength="964.49" waitSteps="0" rerouteNo="0" devices="vehroute_t49 tripinfo_t49" vtype="DEFAULT_VEHTYPE" vaporized="">
    </tripinfo>
    <tripinfo id="t63" depart="63.00" departLane="3/3to4/3_0" departPos="7.60" departSpeed="0.00" departDelay="0.00" arrival="130.00" arrivalLane="4/1to3/1_0" arrivalPos="10.86" arrivalSpeed="13.05" duration="67.00" routeLength="724.76" waitSteps="1" rerouteNo="0" devices="vehroute_t63 tripinfo_t63" vtype="DEFAULT_VEHTYPE" vaporized="">
    </tripinfo>
    <tripinfo id="t24" depart="24.00" departLane="2/4to1/4_0" departPos="7.60" departSpeed="0.00" departDelay="0.00" arrival="131.00" arrivalLane="1/0to0/0_0" arrivalPos="4.76" arrivalSpeed="7.61" duration="107.00" routeLength="1199.66" waitSteps="0" rerouteNo="0" devices="vehroute_t24 tripinfo_t24" vtype="DEFAULT_VEHTYPE" vaporized="">
    </tripinfo>
    <tripinfo id="t38" depart="39.00" departLane="3/1to3/2_0" departPos="7.60" departSpeed="0.00" departDelay="1.00" arrival="132.00" arrivalLane="4/0to3/0_0" arrivalPos="8.32" arrivalSpeed="8.97" duration="93.00" routeLength="964.22" waitSteps="2" rerouteNo="0" devices="vehroute_t38 tripinfo_t38" vtype="DEFAULT_VEHTYPE" vaporized="">
    </tripinfo>
    <tripinfo id="t23" depart="23.00" departLane="3/4to3/3_0" departPos="7.60" departSpeed="0.00" departDelay="0.00" arrival="133.00" arrivalLane="1/1to1/2_0" arrivalPos="4.29" arrivalSpeed="6.83" duration="110.00" routeLength="1199.19" waitSteps="1" rerouteNo="0" devices="vehroute_t23 tripinfo_t23" vtype="DEFAULT_VEHTYPE" vaporized="">
    </tripinfo>
    <tripinfo id="t91" depart="93.00" departLane="2/0to2/1_0" departPos="7.60" departSpeed="0.00" departDelay="2.00" arrival="134.00" arrivalLane="2/2to3/2_0" arrivalPos="7.99" arrivalSpeed="13.44" duration="41.00" routeLength="481.39" waitSteps="0" rerouteNo="0" devices="vehroute_t91 tripinfo_t91" vtype="DEFAULT_VEHTYPE" vaporized="">
    </tripinfo>
    <tripinfo id="t47" depart="47.00" departLane="3/1to4/1_0" departPos="7.60" departSpeed="0.00" departDelay="0.00" arrival="134.00" arrivalLane="3/3to4/3_0" arrivalPos="7.50" arrivalSpeed="7.91" duration="87.00" routeLength="961.90" waitSteps="0" rerouteNo="0" devices="vehroute_t47 tripinfo_t47" vtype="DEFAULT_VEHTYPE" vaporized="">
    </tripinfo>
    <tripinfo id="t39" depart="45.00" departLane="3/2to3/1_0" departPos="7.60" departSpeed="0.00" departDelay="6.00" arrival="135.00" arrivalLane="0/1to0/2_0" arrivalPos="8.01" arrivalSpeed="9.49" duration="90.00" routeLength="962.41" waitSteps="0" rerouteNo="0" devices="vehroute_t39 tripinfo_t39" vtype="DEFAULT_VEHTYPE" vaporized="">
    </tripinfo>
    <tripinfo id="t40" depart="40.00" departLane="0/1to0/0_0" departPos="7.60" departSpeed="0.00" departDelay="0.00" arrival="139.00" arrivalLane="0/4to1/4_0" arrivalPos="9.92" arrivalSpeed="12.88" duration="99.00" routeLength="1209.32" waitSteps="0" rerouteNo="0" devices="vehroute_t40 tripinfo_t40" vtype="DEFAULT_VEHTYPE" vaporized="">
    </tripinfo>
    <tripinfo id="t53" depart="56.00" departLane="2/2to2/3_0" departPos="7.60" departSpeed="0.00" departDelay="3.00" arrival="139.00" arrivalLane="2/0to1/0_0" arrivalPos="7.15" arrivalSpeed="8.31" duration="83.00" routeLength="961.55" waitSteps="0" rerouteNo="0" devices="vehroute_t53 tripinfo_t53" vtype="DEFAULT_VEHTYPE" vaporized="">
    </tripinfo>
    <tripinfo id="t54" depart="54.00" departLane="1/0to2/0_0" departPos="7.60" departSpeed="0.00" departDelay="0.00" arrival="140.00" arrivalLane="1/2to1/3_0" arrivalPos="9.18" arrivalSpeed="13.27" duration="86.00" routeLength="963.58" waitSteps="0" rerouteNo="0" devices="vehroute_t54 tripinfo_t54" vtype="DEFAULT_VEHTYPE" vaporized="">
    </tripinfo>
    <tripinfo id="t61" depart="61.00" departLane="1/2to1/3_0" departPos="7.60" departSpeed="0.00" departDelay="0.00" arrival="141.00" arrivalLane="3/4to3/3_0" arrivalPos="8.19" arrivalSpeed="13.08" duration="80.00" routeLength="962.59" waitSteps="0" rerouteNo="0" devices="vehroute_t61 tripinfo_t61" vtype="DEFAULT_VEHTYPE" vaporized="">
    </tripinfo>
    <tripinfo id="t58" depart="58.00" departLane="2/3to3/3_0" departPos="7.60" departSpeed="0.00" departDelay="0.00" arrival="145.00" arrivalLane="2/2to1/2_0" arrivalPos="5.65" arrivalSpeed="12.96" duration="87.00" routeLength="719.55" waitSteps="15" rerouteNo="0" devices="vehroute_t58 tripinfo_t58" vtype="DEFAULT_VEHTYPE" vaporized="">
    </tripinfo>
    <tripinfo id="t36" depart="36.00" departLane="4/1to4/2_0" departPos="7.60" departSpeed="0.00" departDelay="0.00" arrival="145.00" arrivalLane="1/2to2/2_0" arrivalPos="2.86" arrivalSpeed="6.78" duration="109.00" routeLength="957.26" waitSteps="9" rerouteNo="0" devices="vehroute_t36 tripinfo_t36" vtype="DEFAULT_VEHTYPE" vaporized="">
    </tripinfo>
    <tripinfo id="t12" depart="12.00" departLane="4/2to4/1_0" departPos="7.60" departSpeed="0.00" departDelay="0.00" arrival="145.00" arrivalLane="2/4to2/3_0" arrivalPos="0.83" arrivalSpeed="3.93" duration="133.00" routeLength="1436.23" waitSteps="8" rerouteNo="0" devices="vehroute_t12 tripinfo_t12" vtype="DEFAULT_VEHTYPE" vaporized="">
    </tripinfo>
    <tripinfo id="t75" depart="78.00" departLane="3/1to4/1_0" departPos="7.60" departSpeed="0.00" departDelay="3.00" arrival="147.00" arrivalLane="2/1to1/1_0" arrivalPos="2.47" arrivalSpeed="8.10" duration="69.00" routeLength="716.37" waitSteps="0" rerouteNo="0" devices="vehroute_t75 tripinfo_t75" vtype="DEFAULT_VEHTYPE" vaporized="">
    </tripinfo>
    <tripinfo id="t26" depart="26.00" departLane="1/3to0/3_0" departPos="7.60" departSpeed="0.00" departDelay="0.00" arrival="147.00" arrivalLane="4/3to4/2_0" arrivalPos="4.10" arrivalSpeed="6.87" duration="121.00" routeLength="1199.00" waitSteps="0" rerouteNo="0" devices="vehroute_t26 tripinfo_t26" vtype="DEFAULT_VEHTYPE" vaporized="">
    </tripinfo>
    <tripinfo id="t60" depart="61.00" departLane="3/3to2/3_0" departPos="7.60" departSpeed="0.00" departDelay="1.00" arrival="148.00" arrivalLane="2/0to1/0_0" arrivalPos="7.48" arrivalSpeed="8.21" duration="87.00" routeLength="961.88" waitSteps="0" rerouteNo="0" devices="vehroute_t60 tripinfo_t60" vtype="DEFAULT_VEHTYPE" vaporized="">
    </tripinfo>
    <tripinfo id="t70" depart="71.00" departLane="4/3to3/3_0" departPos="7.60" departSpeed="0.00" departDelay="1.00" arrival="148.00" arrivalLane="2/4to3/4_0" arrivalPos="3.26" arrivalSpeed="7.31" duration="77.00" routeLength="717.16" waitSteps="0" rerouteNo="0" devices="vehroute_t70 tripinfo_t70" vtype="DEFAULT_VEHTYPE" vaporized="">
    </tripinfo>
    <tripinfo id="t44" depart="44.00" departLane="4/2to4/3_0" departPos="7.60" departSpeed="0.00" departDelay="0.00" arrival="149.00" arrivalLane="1/3to1/2_0" arrivalPos="5.97" arrivalSpeed="8.47" duration="105.00" routeLength="960.37" waitSteps="2" rerouteNo="0" devices="vehroute_t44 tripinfo_t44" vtype="DEFAULT_VEHTYPE" vaporized="">
    </tripinfo>
    <tripinfo id="t100" depart="100.00" departLane="2/2to1/2_0" departPos="7.60" departSpeed="0.00" departDelay="0.00" arrival="150.00" arrivalLane="0/2to0/1_0" arrivalPos="5.96" arrivalSpeed="7.03" duration="50.00" routeLength="479.36" waitSteps="0" rerouteNo="0" devices="vehroute_t100 tripinfo_t100" vtype="DEFAULT_VEHTYPE" vaporized="">
    </tripinfo>
    <tripinfo id="t97" depart="101.00" departLane="0/2to1/2_0" departPos="7.60" departSpeed="0.00" departDelay="4.00" arrival="155.00" arrivalLane="1/2to1/3_0" arrivalPos="2.29" arrivalSpeed="6.19" duration="54.00" routeLength="235.19" waitSteps="26" rerouteNo="0" devices="vehroute_t97 tripinfo_t97" vtype="DEFAULT_VEHTYPE" vaporized="">
    </tripinfo>
    <tripinfo id="t86" depart="86.00" departLane="3/3to3/2_0" departPos="7.60" departSpeed="0.00" departDelay="0.00" arrival="156.00" arrivalLane="1/2to2/2_0" arrivalPos="6.09" arrivalSpeed="7.16" duration="70.00" routeLength="719.99" waitSteps="0" rerouteNo="0" devices="vehroute_t86 tripinfo_t86" vtype="DEFAULT_VEHTYPE" vaporized="">
    </tripinfo>
    <tripinfo id="t85" depart="85.00" departLane="0/1to0/2_0" departPos="7.60" departSpeed="0.00" departDelay="0.00" arrival="157.00" arrivalLane="1/2to1/1_0" arrivalPos="4.67" arrivalSpeed="7.04" duration="72.00" routeLength="478.07" waitSteps="24" rerouteNo="0" devices="vehroute_t85 tripinfo_t85" vtype="DEFAULT_VEHTYPE" vaporized="">
    </tripinfo>
    <tripinfo id="t6" depart="6.00" departLane="2/3to3/3_0" departPos="7.60" departSpeed="0.00" departDelay="0.00" arrival="157.00" arrivalLane="0/0to1/0_0" arrivalPos="13.67" arrivalSpeed="13.71" duration="151.00" routeLength="1691.07" waitSteps="0" rerouteNo="0" devices="vehroute_t6 tripinfo_t6" vtype="DEFAULT_VEHTYPE" vaporized="">
    </tripinfo>
    <tripinfo id="t72" depart="72.00" departLane="1/3to0/3_0" departPos="7.60" departSpeed="0.00" departDelay="0.00" arrival="160.00" arrivalLane="1/2to1/1_0" arrivalPos="7.76" arrivalSpeed="9.27" duration="88.00" routeLength="721.66" waitSteps="16" rerouteNo="0" devices="vehroute_t72 tripinfo_t72" vtype="DEFAULT_VEHTYPE" vaporized="">
    </tripinfo>
    <tripinfo id="t136" depart="136.00" departLane="4/4to3/4_0" departPos="7.60" departSpeed="0.00" departDelay="0.00" arrival="160.00" arrivalLane="3/4to4/4_0" arrivalPos="7.21" arrivalSpeed="8.90" duration="24.00" routeLength="241.61" waitSteps="0" rerouteNo="0" devices="vehroute_t136 tripinfo_t136" vtype="DEFAULT_VEHTYPE" vaporized="">
    </tripinfo>
    <tripinfo id="t95" depart="95.00" departLane="2/2to3/2_0" departPos="7.60" departSpeed="0.00" departDelay="0.00" arrival="160.00" arrivalLane="2/3to2/4_0" arrivalPos="11.58" arrivalSpeed="13.11" duration="65.00" routeLength="725.48" waitSteps="0" rerouteNo="0" devices="vehroute_t95 tripinfo_t95" vtype="DEFAULT_VEHTYPE" vaporized="">
    </tripinfo>
    <tripinfo id="t56" depart="56.00" departLane="4/3to4/4_0" departPos="7.60" departSpeed="0.00" departDelay="0.00" arrival="161.00" arrivalLane="2/2to3/2_0" arrivalPos="6.60" arrivalSpeed="8.30" duration="105.00" routeLength="1204.50" waitSteps="0" rerouteNo="0" devices="vehroute_t56 tripinfo_t56" vtype="DEFAULT_VEHTYPE" vaporized="">
    </tripinfo>
    <tripinfo id="t76" depart="78.00" departLane="2/3to2/4_0" departPos="7.60" departSpeed="0.00" departDelay="2.00" arrival="161.00" arrivalLane="2/1to1/1_0" arrivalPos="8.45" arrivalSpeed="12.93" duration="83.00" routeLength="962.85" waitSteps="0" rerouteNo="0" devices="vehroute_t76 tripinfo_t76" vtype="DEFAULT_VEHTYPE" vaporized="">
    </tripinfo>
    <tripinfo id="t115" depart="115.00" departLane="3/4to2/4_0" departPos="7.60" departSpeed="0.00" departDelay="0.00" arrival="163.00" arrivalLane="2/3to3/3_0" arrivalPos="6.24" arrivalSpeed="6.47" duration="48.00" routeLength="479.64" waitSteps="0" rerouteNo="0" devices="vehroute_t115 tripinfo_t115" vtype="DEFAULT_VEHTYPE" vaporized="">
    </tripinfo>
    <tripinfo id="t87" depart="89.00" departLane="1/3to0/3_0" departPos="7.60" departSpeed="0.00" departDelay="2.00" arrival="163.00" arrivalLane="1/2to2/2_0" arrivalPos="1.96" arrivalSpeed="8.79" duration="74.00" routeLength="715.86" waitSteps="0" rerouteNo="0" devices="vehroute_t87 tripinfo_t87" vtype="DEFAULT_VEHTYPE" vaporized="">
    </tripinfo>
    <tripinfo id="t102" depart="102.00" departLane="1/1to1/2_0" departPos="7.60" departSpeed="0.00" departDelay="0.00" arrival="163.00" arrivalLane="1/4to1/3_0" arrivalPos="7.85" arrivalSpeed="8.70" duration="61.00" routeLength="721.75" waitSteps="0" rerouteNo="0" devices="vehroute_t102 tripinfo_t102" vtype="DEFAULT_VEHTYPE" vaporized="">
    </tripinfo>
    <tripinfo id="t108" depart="113.00" departLane="3/2to3/3_0" departPos="7.60" departSpeed="0.00" departDelay="5.00" arrival="165.00" arrivalLane="4/3to4/2_0" arrivalPos="0.90" arrivalSpeed="6.20" duration="52.00" routeLength="474.30" waitSteps="3" rerouteNo="0" devices="vehroute_t108 tripinfo_t108" vtype="DEFAULT_VEHTYPE" vaporized="">
    </tripinfo>
    <tripinfo id="t11" depart="11.00" departLane="1/3to1/4_0" departPos="7.60" departSpeed="0.00" departDelay="0.00" arrival="165.00" arrivalLane="4/1to4/2_0" arrivalPos="2.33" arrivalSpeed="9.01" duration="154.00" routeLength="1678.23" waitSteps="2" rerouteNo="0" devices="vehroute_t11 tripinfo_t11" vtype="DEFAULT_VEHTYPE" vaporized="">
    </tripinfo>
    <tripinfo id="t74" depart="75.00" departLane="3/1to4/1_0" departPos="7.60" departSpeed="0.00" departDelay="1.00" arrival="166.00" arrivalLane="2/2to2/1_0" arrivalPos="3.44" arrivalSpeed="5.25" duration="91.00" routeLength="957.84" waitSteps="0" rerouteNo="0" devices="vehroute_t74 tripinfo_t74" vtype="DEFAULT_VEHTYPE" vaporized="">
    </tripinfo>
    <tripinfo id="t96" depart="106.00" departLane="4/1to3/1_0" departPos="7.60" departSpeed="0.00" departDelay="10.00" arrival="167.00" arrivalLane="3/3to4/3_0" arrivalPos="0.17" arrivalSpeed="13.89" duration="61.00" routeLength="714.07" waitSteps="0" rerouteNo="0" devices="vehroute_t96 tripinfo_t96" vtype="DEFAULT_VEHTYPE" vaporized="">
    </tripinfo>
    <tripinfo id="t120" depart="122.00" departLane="3/1to4/1_0" departPos="7.60" departSpeed="0.00" departDelay="2.00" arrival="168.00" arrivalLane="4/2to4/1_0" arrivalPos="5.62" arrivalSpeed="7.54" duration="46.00" routeLength="479.02" waitSteps="0" rerouteNo="0" devices="vehroute_t120 tripinfo_t120" vtype="DEFAULT_VEHTYPE" vaporized="">
    </tripinfo>
    <tripinfo id="t113" depart="113.00" departLane="2/3to3/3_0" departPos="7.60" departSpeed="0.00" departDelay="0.00" arrival="169.00" arrivalLane="4/3to4/4_0" arrivalPos="0.25" arrivalSpeed="7.10" duration="56.00" routeLength="473.65" waitSteps="0" rerouteNo="0" devices="vehroute_t113 tripinfo_t113" vtype="DEFAULT_VEHTYPE" vaporized="">
    </tripinfo>
    <tripinfo id="t77" depart="82.00" departLane="3/1to2/1_0" departPos="7.60" departSpeed="0.00" departDelay="5.00" arrival="169.00" arrivalLane="4/0to3/0_0" arrivalPos="6.39" arrivalSpeed="7.18" duration="87.00" routeLength="962.29" waitSteps="0" rerouteNo="0" devices="vehroute_t77 tripinfo_t77" vtype="DEFAULT_VEHTYPE" vaporized="">
    </tripinfo>