<?xml version="1.0"?>

<!-- generated on 2014/10/23 ¤U¤È 04:55:16 by SUMO gui Version 0.12.3
<?xml version="1.0" encoding="iso-8859-1"?>

<configuration xmlns:xsi="http://www.w3.org/2001/XMLSchema-instance" xsi:noNamespaceSchemaLocation="http://sumo.sf.net/xsd/sumo-gui.exeConfiguration.xsd">

    <input>
        <net-file value="C:\Users\mikelei\Desktop\sumo-0.12.3\mikelei\gpsr_test\test.net.xml"/>
        <route-files value="C:\Users\mikelei\Desktop\sumo-0.12.3\mikelei\gpsr_test\test.rou.xml"/>
    </input>

    <output>
        <netstate-dump value="C:\Users\mikelei\Desktop\sumo-0.12.3\mikelei\gpsr_test\test.sumo.tr"/>
        <emissions-output value="C:\Users\mikelei\Desktop\sumo-0.12.3\mikelei\gpsr_test\output-emissions.xml"/>
        <tripinfo-output value="C:\Users\mikelei\Desktop\sumo-0.12.3\mikelei\gpsr_test\output-tripinfos.xml"/>
        <vehroute-output value="C:\Users\mikelei\Desktop\sumo-0.12.3\mikelei\gpsr_test\output-vehroutes.xml"/>
    </output>

    <time>
        <begin value="0"/>
        <end value="200"/>
    </time>

    <processing>
        <route-steps value="-1"/>
        <time-to-teleport value="-1"/>
    </processing>

    <report>
        <print-options value="false"/>
    </report>

    <random_number>
        <srand value="23423"/>
    </random_number>

    <gui_only>
        <gui-settings-file value=""/>
    </gui_only>

</configuration>
-->

<routes>
    <vehicle id="t21" depart="21.00" arrival="43.00">
        <route edges="2/4to1/4 1/4to0/4"/>
    </vehicle>

    <vehicle id="t2" depart="2.00" arrival="44.00">
        <route edges="2/0to1/0 1/0to1/1 1/1to1/0"/>
    </vehicle>

    <vehicle id="t13" depart="13.00" arrival="53.00">
        <route edges="0/3to0/4 0/4to1/4 1/4to2/4"/>
    </vehicle>

    <vehicle id="t19" depart="19.00" arrival="62.00">
        <route edges="3/3to3/2 3/2to3/1 3/1to4/1"/>
    </vehicle>

    <vehicle id="t17" depart="17.00" arrival="65.00">
        <route edges="4/1to3/1 3/1to2/1 2/1to3/1"/>
    </vehicle>

    <vehicle id="t43" depart="43.00" arrival="67.00">
        <route edges="0/1to1/1 1/1to1/2"/>
    </vehicle>

    <vehicle id="t0" depart="0.00" arrival="68.00">
        <route edges="2/2to1/2 1/2to0/2 0/2to0/1 0/1to0/2"/>
    </vehicle>

    <vehicle id="t52" depart="53.00" arrival="74.00">
        <route edges="2/2to2/3 2/3to3/3"/>
    </vehicle>

    <vehicle id="t34" depart="34.00" arrival="78.00">
        <route edges="4/2to4/1 4/1to3/1 3/1to2/1"/>
    </vehicle>

    <vehicle id="t55" depart="55.00" arrival="79.00">
        <route edges="2/4to2/3 2/3to3/3"/>
    </vehicle>

    <vehicle id="t15" depart="15.00" arrival="79.00">
        <route edges="3/4to4/4 4/4to3/4 3/4to2/4 2/4to2/3"/>
    </vehicle>

    <vehicle id="t16" depart="16.00" arrival="82.00">
        <route edges="1/2to0/2 0/2to1/2 1/2to2/2 2/2to1/2"/>
    </vehicle>

    <vehicle id="t5" depart="5.00" arrival="85.00">
        <route edges="2/4to1/4 1/4to2/4 2/4to3/4 3/4to4/4 4/4to4/3"/>
    </vehicle>

    <vehicle id="t28" depart="28.00" arrival="92.00">
        <route edges="2/2to2/3 2/3to2/2 2/2to2/1 2/1to2/2"/>
    </vehicle>

    <vehicle id="t30" depart="30.00" arrival="94.00">
        <route edges="3/2to2/2 2/2to2/1 2/1to2/0 2/0to1/0"/>
    </vehicle>

    <vehicle id="t27" depart="27.00" arrival="96.00">
        <route edges="2/2to1/2 1/2to1/3 1/3to2/3 2/3to1/3"/>
    </vehicle>

    <vehicle id="t10" depart="10.00" arrival="96.00">
        <route edges="1/3to0/3 0/3to0/2 0/2to0/1 0/1to1/1 1/1to1/0"/>
    </vehicle>

    <vehicle id="t8" depart="8.00" arrival="97.00">
        <route edges="3/1to2/1 2/1to1/1 1/1to1/2 1/2to1/3 1/3to0/3"/>
    </vehicle>

    <vehicle id="t3" depart="3.00" arrival="99.00">
        <route edges="2/2to3/2 3/2to2/2 2/2to1/2 1/2to1/3 1/3to1/2"/>
    </vehicle>

    <vehicle id="t79" depart="79.00" arrival="101.00">
        <route edges="2/1to2/2 2/2to3/2"/>
    </vehicle>

    <vehicle id="t9" depart="9.00" arrival="103.00">
        <route edges="1/1to1/2 1/2to1/3 1/3to2/3 2/3to3/3 3/3to3/2"/>
    </vehicle>

    <vehicle id="t33" depart="33.00" arrival="104.00">
        <route edges="3/4to3/3 3/3to2/3 2/3to2/2 2/2to2/1"/>
    </vehicle>

    <vehicle id="t65" depart="65.00" arrival="105.00">
        <route edges="2/0to1/0 1/0to0/0 0/0to0/1"/>
    </vehicle>

    <vehicle id="t22" depart="22.00" arrival="107.00">
        <route edges="2/2to3/2 3/2to2/2 2/2to2/1 2/1to2/0 2/0to3/0"/>
    </vehicle>

    <vehicle id="t14" depart="14.00" arrival="109.00">
        <route edges="2/1to2/2 2/2to2/1 2/1to3/1 3/1to4/1 4/1to4/2"/>
    </vehicle>

    <vehicle id="t1" depart="1.00" arrival="112.00">
        <route edges="1/0to0/0 0/0to0/1 0/1to0/2 0/2to1/2 1/2to2/2 2/2to3/2"/>
    </vehicle>

    <vehicle id="t46" depart="46.00" arrival="113.00">
        <route edges="0/1to1/1 1/1to1/2 1/2to1/3 1/3to0/3"/>
    </vehicle>

    <vehicle id="t29" depart="29.00" arrival="116.00">
        <route edges="3/2to3/3 3/3to2/3 2/3to1/3 1/3to0/3"/>
    </vehicle>

    <vehicle id="t7" depart="7.00" arrival="120.00">
        <route edges="0/1to0/2 0/2to0/1 0/1to1/1 1/1to2/1 2/1to3/1 3/1to4/1"/>
    </vehicle>

    <vehicle id="t25" depart="25.00" arrival="122.00">
        <route edges="0/4to0/3 0/3to1/3 1/3to2/3 2/3to3/3 3/3to4/3"/>
    </vehicle>

    <vehicle id="t78" depart="78.00" arrival="122.00">
        <route edges="3/2to3/1 3/1to4/1 4/1to3/1"/>
    </vehicle>

    <vehicle id="t4" depart="4.00" arrival="125.00">
        <route edges="2/2to2/3 2/3to2/2 2/2to2/1 2/1to2/0 2/0to3/0 3/0to4/0 4/0to4/1"/>
    </vehicle>

    <vehicle id="t20" depart="23.00" arrival="125.00">
        <route edges="1/2to1/3 1/3to1/4 1/4to2/4 2/4to3/4 3/4to4/4 4/4to3/4"/>
    </vehicle>

    <vehicle id="t42" depart="42.00" arrival="125.00">
        <route edges="4/4to3/4 3/4to2/4 2/4to1/4 1/4to1/3 1/3to1/4"/>
    </vehicle>

    <vehicle id="t62" depart="64.00" arrival="126.00">
        <route edges="2/3to2/4 2/4to2/3 2/3to2/2 2/2to2/1"/>
    </vehicle>

    <vehicle id="t59" depart="59.00" arrival="126.00">
        <route edges="1/1to1/2 1/2to1/1 1/1to2/1 2/1to1/1"/>
    </vehicle>

    <vehicle id="t48" depart="48.00" arrival="126.00">
        <route edges="3/4to4/4 4/4to4/3 4/3to4/2 4/2to4/1 4/1to4/0"/>
    </vehicle>

    <vehicle id="t32" depart="32.00" arrival="127.00">
        <route edges="1/2to2/2 2/2to1/2 1/2to0/2 0/2to0/1 0/1to0/2"/>
    </vehicle>

    <vehicle id="t35" depart="35.00" arrival="128.00">
        <route edges="3/1to2/1 2/1to1/1 1/1to0/1 0/1to0/0"/>
    </vehicle>

    <vehicle id="t18" depart="18.00" arrival="128.00">
        <route edges="3/4to2/4 2/4to2/3 2/3to2/2 2/2to2/1 2/1to3/1 3/1to2/1"/>
    </vehicle>

    <vehicle id="t49" depart="49.00" arrival="129.00">
        <route edges="1/2to1/1 1/1to0/1 0/1to0/2 0/2to0/3 0/3to0/4"/>
    </vehicle>

    <vehicle id="t63" depart="63.00" arrival="130.00">
        <route edges="3/3to4/3 4/3to4/2 4/2to4/1 4/1to3/1"/>
    </vehicle>

    <vehicle id="t24" depart="24.00" arrival="131.00">
        <route edges="2/4to1/4 1/4to1/3 1/3to1/2 1/2to1/1 1/1to1/0 1/0to0/0"/>
    </vehicle>

    <vehicle id="t38" depart="39.00" arrival="132.00">
        <route edges="3/1to3/2 3/2to3/1 3/1to3/0 3/0to4/0 4/0to3/0"/>
    </vehicle>

    <vehicle id="t23" depart="23.00" arrival="133.00">
        <route edges="3/4to3/3 3/3to2/3 2/3to1/3 1/3to1/2 1/2to1/1 1/1to1/2"/>
    </vehicle>

    <vehicle id="t91" depart="93.00" arrival="134.00">
        <route edges="2/0to2/1 2/1to2/2 2/2to3/2"/>
    </vehicle>

    <vehicle id="t47" depart="47.00" arrival="134.00">
        <route edges="3/1to4/1 4/1to3/1 3/1to3/2 3/2to3/3 3/3to4/3"/>
    </vehicle>

    <vehicle id="t39" depart="45.00" arrival="135.00">
        <route edges="3/2to3/1 3/1to2/1 2/1to1/1 1/1to0/1 0/1to0/2"/>
    </vehicle>

    <vehicle id="t40" depart="40.00" arrival="139.00">
        <route edges="0/1to0/0 0/0to0/1 0/1to0/2 0/2to0/3 0/3to0/4 0/4to1/4"/>
    </vehicle>

    <vehicle id="t53" depart="56.00" arrival="139.00">
        <route edges="2/2to2/3 2/3to2/2 2/2to2/1 2/1to2/0 2/0to1/0"/>
    </vehicle>

    <vehicle id="t54" depart="54.00" arrival="140.00">
        <route edges="1/0to2/0 2/0to1/0 1/0to1/1 1/1to1/2 1/2to1/3"/>
    </vehicle>

    <vehicle id="t61" depart="61.00" arrival="141.00">
        <route edges="1/2to1/3 1/3to1/4 1/4to2/4 2/4to3/4 3/4to3/3"/>
    </vehicle>

    <vehicle id="t58" depart="58.00" arrival="145.00">
        <route edges="2/3to3/3 3/3to2/3 2/3to2/2 2/2to1/2"/>
    </vehicle>

    <vehicle id="t36" depart="36.00" arrival="145.00">
        <route edges="4/1to4/2 4/2to3/2 3/2to2/2 2/2to1/2 1/2to2/2"/>
    </vehicle>

    <vehicle id="t12" depart="12.00" arrival="145.00">
        <route edges="4/2to4/1 4/1to3/1 3/1to2/1 2/1to2/2 2/2to2/3 2/3to2/4 2/4to2/3"/>
    </vehicle>

    <vehicle id="t75" depart="78.00" arrival="147.00">
        <route edges="3/1to4/1 4/1to3/1 3/1to2/1 2/1to1/1"/>
    </vehicle>

    <vehicle id="t26" depart="26.00" arrival="147.00">
        <route edges="1/3to0/3 0/3to1/3 1/3to2/3 2/3to3/3 3/3to4/3 4/3to4/2"/>
    </vehicle>

    <vehicle id="t60" depart="61.00" arrival="148.00">
        <route edges="3/3to2/3 2/3to2/2 2/2to2/1 2/1to2/0 2/0to1/0"/>
    </vehicle>

    <vehicle id="t70" depart="71.00" arrival="148.00">
        <route edges="4/3to3/3 3/3to2/3 2/3to2/4 2/4to3/4"/>
    </vehicle>

    <vehicle id="t44" depart="44.00" arrival="149.00">
        <route edges="4/2to4/3 4/3to3/3 3/3to2/3 2/3to1/3 1/3to1/2"/>
    </vehicle>

    <vehicle id="t100" depart="100.00" arrival="150.00">
        <route edges="2/2to1/2 1/2to0/2 0/2to0/1"/>
    </vehicle>

    <vehicle id="t97" depart="101.00" arrival="155.00">
        <route edges="0/2to1/2 1/2to1/3"/>
    </vehicle>

    <vehicle id="t86" depart="86.00" arrival="156.00">
        <route edges="3/3to3/2 3/2to2/2 2/2to1/2 1/2to2/2"/>
    </vehicle>

    <vehicle id="t85" depart="85.00" arrival="157.00">
        <route edges="0/1to0/2 0/2to1/2 1/2to1/1"/>
    </vehicle>

    <vehicle id="t6" depart="6.00" arrival="157.00">
        <route edges="2/3to3/3 3/3to2/3 2/3to1/3 1/3to0/3 0/3to0/2 0/2to0/1 0/1to0/0 0/0to1/0"/>
    </vehicle>

    <vehicle id="t72" depart="72.00" arrival="160.00">
        <route edges="1/3to0/3 0/3to0/2 0/2to1/2 1/2to1/1"/>
    </vehicle>

    <vehicle id="t136" depart="136.00" arrival="160.00">
        <route edges="4/4to3/4 3/4to4/4"/>
    </vehicle>

    <vehicle id="t95" depart="95.00" arrival="160.00">
        <route edges="2/2to3/2 3/2to2/2 2/2to2/3 2/3to2/4"/>
    </vehicle>

    <vehicle id="t56" depart="56.00" arrival="161.00">
        <route edges="4/3to4/4 4/4to3/4 3/4to2/4 2/4to2/3 2/3to2/2 2/2to3/2"/>
    </vehicle>

    <vehicle id="t76" depart="78.00" arrival="161.00">
        <route edges="2/3to2/4 2/4to2/3 2/3to2/2 2/2to2/1 2/1to1/1"/>
    </vehicle>

    <vehicle id="t115" depart="115.00" arrival="163.00">
        <route edges="3/4to2/4 2/4to2/3 2/3to3/3"/>
    </vehicle>

    <vehicle id="t87" depart="89.00" arrival="163.00">
        <route edges="1/3to0/3 0/3to0/2 0/2to1/2 1/2to2/2"/>
    </vehicle>

    <vehicle id="t102" depart="102.00" arrival="163.00">
        <route edges="1/1to1/2 1/2to1/3 1/3to1/4 1/4to1/3"/>
    </vehicle>

    <vehicle id="t108" depart="113.00" arrival="165.00">
        <route edges="3/2to3/3 3/3to4/3 4/3to4/2"/>
    </vehicle>

    <vehicle id="t11" depart="11.00" arrival="165.00">
        <route edges="1/3to1/4 1/4to1/3 1/3to1/2 1/2to1/1 1/1to2/1 2/1to3/1 3/1to4/1 4/1to4/2"/>
    </vehicle>

    <vehicle id="t74" depart="75.00" arrival="166.00">
        <route edges="3/1to4/1 4/1to3/1 3/1to2/1 2/1to2/2 2/2to2/1"/>
    </vehicle>

    <vehicle id="t96" depart="106.00" arrival="167.00">
        <route edges="4/1to3/1 3/1to3/2 3/2to3/3 3/3to4/3"/>
    </vehicle>

    <vehicle id="t120" depart="122.00" arrival="168.00">
        <route edges="3/1to4/1 4/1to4/2 4/2to4/1"/>
    </vehicle>

    <vehicle id="t113" depart="113.00" arrival="169.00">
        <route edges="2/3to3/3 3/3to4/3 4/3to4/4"/>
    </vehicle>

    <vehicle id="t77" depart="82.00" arrival="169.00">
        <route edges="3/1to2/1 2/1to2/0 2/0to3/0 3/0to4/0 4/0to3/0"/>
    </vehicle>

    <vehicle id="t89" depart="94.00" arrival="171.00">
        <route edges="1/2to0/2 0/2to0/1 0/1to1/1 1/1to1/2"/>
    </vehicle>

    <vehicle id="t66" depart="66.00" arrival="171.00">
        <route edges="1/4to1/3 1/3to1/2 1/2to1/1 1/1to2/1 2/1to3/1 3/1to3/0"/>
    </vehicle>

    <vehicle id="t106" depart="107.00" arrival="171.00">
        <route edges="3/2to3/3 3/3to3/2 3/2to3/1 3/1to3/2"/>
    </vehicle>

    <vehicle id="t80" depart="80.00" arrival="172.00">
        <route edges="2/1to3/1 3/1to3/2 3/2to3/3 3/3to4/3 4/3to3/3"/>
    </vehicle>

    <vehicle id="t41" depart="41.00" arrival="173.00">
        <route edges="4/2to4/3 4/3to3/3 3/3to2/3 2/3to1/3 1/3to0/3 0/3to0/2 0/2to0/1"/>
    </vehicle>

    <vehicle id="t101" depart="103.00" arrival="175.00">
        <route edges="2/2to1/2 1/2to0/2 0/2to0/3 0/3to0/2"/>
    </vehicle>

    <vehicle id="t127" depart="128.00" arrival="179.00">
        <route edges="2/3to2/2 2/2to3/2 3/2to2/2"/>
    </vehicle>

    <vehicle id="t50" depart="50.00" arrival="184.00">
        <route edges="4/2to3/2 3/2to2/2 2/2to1/2 1/2to0/2 0/2to0/3 0/3to1/3"/>
    </vehicle>

    <vehicle id="t98" depart="98.00" arrival="185.00">
        <route edges="4/3to3/3 3/3to2/3 2/3to2/2 2/2to2/1 2/1to3/1"/>
    </vehicle>

    <vehicle id="t67" depart="71.00" arrival="185.00">
        <route edges="4/4to4/3 4/3to3/3 3/3to2/3 2/3to1/3 1/3to1/4 1/4to2/4"/>
    </vehicle>

    <vehicle id="t123" depart="123.00" arrival="186.00">
        <route edges="1/0to1/1 1/1to2/1 2/1to3/1 3/1to3/0"/>
    </vehicle>

    <vehicle id="t122" depart="122.00" arrival="187.00">
        <route edges="1/4to2/4 2/4to2/3 2/3to2/2 2/2to2/3"/>
    </vehicle>

    <vehicle id="t125" depart="126.00" arrival="187.00">
        <route edges="2/1to2/2 2/2to2/3 2/3to3/3 3/3to3/2"/>
    </vehicle>

    <vehicle id="t51" depart="51.00" arrival="190.00">
        <route edges="4/0to3/0 3/0to2/0 2/0to1/0 1/0to1/1 1/1to0/1 0/1to0/2 0/2to0/3 0/3to0/4"/>
    </vehicle>

    <vehicle id="t45" depart="45.00" arrival="190.00">
        <route edges="0/2to0/3 0/3to0/2 0/2to0/1 0/1to1/1 1/1to2/1 2/1to2/0"/>
    </vehicle>

    <vehicle id="t152" depart="152.00" arrival="192.00">
        <route edges="2/1to1/1 1/1to1/0"/>
    </vehicle>

    <vehicle id="t64" depart="67.00" arrival="192.00">
        <route edges="0/3to0/2 0/2to0/1 0/1to1/1 1/1to1/0 1/0to2/0 2/0to2/1"/>
    </vehicle>

    <vehicle id="t111" depart="115.00" arrival="193.00">
        <route edges="2/1to3/1 3/1to2/1 2/1to1/1 1/1to2/1"/>
    </vehicle>

    <vehicle id="t132" depart="133.00" arrival="193.00">
        <route edges="2/4to2/3 2/3to2/2 2/2to2/1 2/1to3/1"/>
    </vehicle>

    <vehicle id="t31" depart="31.00" arrival="193.00">
        <route edges="1/0to0/0 0/0to0/1 0/1to0/2 0/2to0/3 0/3to1/3 1/3to2/3 2/3to3/3 3/3to4/3 4/3to4/2"/>
    </vehicle>

    <vehicle id="t110" depart="112.00" arrival="193.00">
        <route edges="3/3to3/4 3/4to2/4 2/4to1/4 1/4to0/4 0/4to0/3"/>
    </vehicle>

    <vehicle id="t94" depart="94.00" arrival="194.00">
        <route edges="3/0to2/0 2/0to2/1 2/1to2/2 2/2to2/3 2/3to2/4 2/4to1/4"/>
    </vehicle>

    <vehicle id="t109" depart="115.00" arrival="196.00">
        <route edges="1/1to1/2 1/2to1/3 1/3to1/4 1/4to2/4 2/4to3/4"/>
    </vehicle>

    <vehicle id="t69" depart="71.00" arrival="196.00">
        <route edges="0/1to0/0 0/0to0/1 0/1to0/2 0/2to0/3 0/3to1/3 1/3to2/3 2/3to3/3"/>
    </vehicle>

    <vehicle id="t71" depart="71.00" arrival="197.00">
        <route edges="0/2to1/2 1/2to1/3 1/3to1/4 1/4to2/4 2/4to3/4 3/4to4/4 4/4to4/3"/>
    </vehicle>

    <vehicle id="t68" depart="73.00" arrival="197.00">
        <route edges="0/3to0/2 0/2to0/1 0/1to1/1 1/1to1/0 1/0to2/0 2/0to3/0"/>
    </vehicle>

    <vehicle id="t157" depart="157.00" arrival="199.00">
        <route edges="0/0to0/1 0/1to0/2 0/2to0/3"/>
    </vehicle>

</routes>
