<?xml version="1.0"?>

<!-- generated on 2014/10/23 ¤U¤È 04:55:16 by SUMO gui Version 0.12.3
<?xml version="1.0" encoding="iso-8859-1"?>

<configuration xmlns:xsi="http://www.w3.org/2001/XMLSchema-instance" xsi:noNamespaceSchemaLocation="http://sumo.sf.net/xsd/sumo-gui.exeConfiguration.xsd">

    <input>
        <net-file value="C:\Users\mikelei\Desktop\sumo-0.12.3\mikelei\gpsr_test\test.net.xml"/>
        <route-files value="C:\Users\mikelei\Desktop\sumo-0.12.3\mikelei\gpsr_test\test.rou.xml"/>
    </input>

    <output>
        <netstate-dump value="C:\Users\mikelei\Desktop\sumo-0.12.3\mikelei\gpsr_test\test.sumo.tr"/>
        <emissions-output value="C:\Users\mikelei\Desktop\sumo-0.12.3\mikelei\gpsr_test\output-emissions.xml"/>
        <tripinfo-output value="C:\Users\mikelei\Desktop\sumo-0.12.3\mikelei\gpsr_test\output-tripinfos.xml"/>
        <vehroute-output value="C:\Users\mikelei\Desktop\sumo-0.12.3\mikelei\gpsr_test\output-vehroutes.xml"/>
    </output>

    <time>
        <begin value="0"/>
        <end value="200"/>
    </time>

    <processing>
        <route-steps value="-1"/>
        <time-to-teleport value="-1"/>
    </processing>

    <report>
        <print-options value="false"/>
    </report>

    <random_number>
        <srand value="23423"/>
    </random_number>

    <gui_only>
        <gui-settings-file value=""/>
    </gui_only>

</configuration>
-->

<emissions>
    <emission-state time="0.00" loaded="200" emitted="1" running="1" waiting="0" ended="0" meanWaitingTime="0.00" meanTravelTime="-1.00" duration="-1" />
    <emission-state time="1.00" loaded="200" emitted="2" running="2" waiting="0" ended="0" meanWaitingTime="0.00" meanTravelTime="-1.00" duration="0" />
    <emission-state time="2.00" loaded="200" emitted="3" running="3" waiting="0" ended="0" meanWaitingTime="0.00" meanTravelTime="-1.00" duration="0" />
    <emission-state time="3.00" loaded="200" emitted="4" running="4" waiting="0" ended="0" meanWaitingTime="0.00" meanTravelTime="-1.00" duration="0" />
    <emission-state time="4.00" loaded="200" emitted="5" running="5" waiting="0" ended="0" meanWaitingTime="0.00" meanTravelTime="-1.00" duration="0" />
    <emission-state time="5.00" loaded="200" emitted="6" running="6" waiting="0" ended="0" meanWaitingTime="0.00" meanTravelTime="-1.00" duration="0" />
    <emission-state time="6.00" loaded="200" emitted="7" running="7" waiting="0" ended="0" meanWaitingTime="0.00" meanTravelTime="-1.00" duration="0" />
    <emission-state time="7.00" loaded="200" emitted="8" running="8" waiting="0" ended="0" meanWaitingTime="0.00" meanTravelTime="-1.00" duration="0" />
    <emission-state time="8.00" loaded="200" emitted="9" running="9" waiting="0" ended="0" meanWaitingTime="0.00" meanTravelTime="-1.00" duration="0" />
    <emission-state time="9.00" loaded="200" emitted="10" running="10" waiting="0" ended="0" meanWaitingTime="0.00" meanTravelTime="-1.00" duration="0" />
    <emission-state time="10.00" loaded="200" emitted="11" running="11" waiting="0" ended="0" meanWaitingTime="0.00" meanTravelTime="-1.00" duration="0" />
    <emission-state time="11.00" loaded="200" emitted="12" running="12" waiting="0" ended="0" meanWaitingTime="0.00" meanTravelTime="-1.00" duration="1" />
    <emission-state time="12.00" loaded="200" emitted="13" running="13" waiting="0" ended="0" meanWaitingTime="0.00" meanTravelTime="-1.00" duration="1" />
    <emission-state time="13.00" loaded="200" emitted="14" running="14" waiting="0" ended="0" meanWaitingTime="0.00" meanTravelTime="-1.00" duration="1" />
    <emission-state time="14.00" loaded="200" emitted="15" running="15" waiting="0" ended="0" meanWaitingTime="0.00" meanTravelTime="-1.00" duration="1" />
    <emission-state time="15.00" loaded="200" emitted="16" running="16" waiting="0" ended="0" meanWaitingTime="0.00" meanTravelTime="-1.00" duration="1" />
    <emission-state time="16.00" loaded="200" emitted="17" running="17" waiting="0" ended="0" meanWaitingTime="0.00" meanTravelTime="-1.00" duration="1" />
    <emission-state time="17.00" loaded="200" emitted="18" running="18" waiting="0" ended="0" meanWaitingTime="0.00" meanTravelTime="-1.00" duration="1" />
    <emission-state time="18.00" loaded="200" emitted="19" running="19" waiting="0" ended="0" meanWaitingTime="0.00" meanTravelTime="-1.00" duration="1" />
    <emission-state time="19.00" loaded="200" emitted="20" running="20" waiting="0" ended="0" meanWaitingTime="0.00" meanTravelTime="-1.00" duration="1" />
    <emission-state time="20.00" loaded="200" emitted="20" running="20" waiting="1" ended="0" meanWaitingTime="0.00" meanTravelTime="-1.00" duration="0" />
    <emission-state time="21.00" loaded="200" emitted="21" running="21" waiting="1" ended="0" meanWaitingTime="0.00" meanTravelTime="-1.00" duration="1" />
    <emission-state time="22.00" loaded="200" emitted="22" running="22" waiting="1" ended="0" meanWaitingTime="0.00" meanTravelTime="-1.00" duration="0" />
    <emission-state time="23.00" loaded="200" emitted="24" running="24" waiting="0" ended="0" meanWaitingTime="0.13" meanTravelTime="-1.00" duration="1" />
    <emission-state time="24.00" loaded="200" emitted="25" running="25" waiting="0" ended="0" meanWaitingTime="0.12" meanTravelTime="-1.00" duration="0" />
    <emission-state time="25.00" loaded="200" emitted="26" running="26" waiting="0" ended="0" meanWaitingTime="0.12" meanTravelTime="-1.00" duration="1" />
    <emission-state time="26.00" loaded="200" emitted="27" running="27" waiting="0" ended="0" meanWaitingTime="0.11" meanTravelTime="-1.00" duration="0" />
    <emission-state time="27.00" loaded="200" emitted="28" running="28" waiting="0" ended="0" meanWaitingTime="0.11" meanTravelTime="-1.00" duration="1" />
    <emission-state time="28.00" loaded="200" emitted="29" running="29" waiting="0" ended="0" meanWaitingTime="0.10" meanTravelTime="-1.00" duration="1" />
    <emission-state time="29.00" loaded="200" emitted="30" running="30" waiting="0" ended="0" meanWaitingTime="0.10" meanTravelTime="-1.00" duration="1" />
    <emission-state time="30.00" loaded="200" emitted="31" running="31" waiting="0" ended="0" meanWaitingTime="0.10" meanTravelTime="-1.00" duration="1" />
    <emission-state time="31.00" loaded="200" emitted="32" running="32" waiting="0" ended="0" meanWaitingTime="0.09" meanTravelTime="-1.00" duration="1" />
    <emission-state time="32.00" loaded="200" emitted="33" running="33" waiting="0" ended="0" meanWaitingTime="0.09" meanTravelTime="-1.00" duration="1" />
    <emission-state time="33.00" loaded="200" emitted="34" running="34" waiting="0" ended="0" meanWaitingTime="0.09" meanTravelTime="-1.00" duration="1" />
    <emission-state time="34.00" loaded="200" emitted="35" running="35" waiting="0" ended="0" meanWaitingTime="0.09" meanTravelTime="-1.00" duration="1" />
    <emission-state time="35.00" loaded="200" emitted="36" running="36" waiting="0" ended="0" meanWaitingTime="0.08" meanTravelTime="-1.00" duration="1" />
    <emission-state time="36.00" loaded="200" emitted="37" running="37" waiting="0" ended="0" meanWaitingTime="0.08" meanTravelTime="-1.00" duration="1" />
    <emission-state time="37.00" loaded="200" emitted="38" running="38" waiting="0" ended="0" meanWaitingTime="0.08" meanTravelTime="-1.00" duration="1" />
    <emission-state time="38.00" loaded="200" emitted="38" running="38" waiting="1" ended="0" meanWaitingTime="0.08" meanTravelTime="-1.00" duration="1" />
    <emission-state time="39.00" loaded="200" emitted="39" running="39" waiting="1" ended="0" meanWaitingTime="0.10" meanTravelTime="-1.00" duration="0" />
    <emission-state time="40.00" loaded="200" emitted="40" running="40" waiting="1" ended="0" meanWaitingTime="0.10" meanTravelTime="-1.00" duration="1" />
    <emission-state time="41.00" loaded="200" emitted="41" running="41" waiting="1" ended="0" meanWaitingTime="0.10" meanTravelTime="-1.00" duration="0" />
    <emission-state time="42.00" loaded="200" emitted="42" running="42" waiting="1" ended="0" meanWaitingTime="0.10" meanTravelTime="-1.00" duration="1" />
    <emission-state time="43.00" loaded="200" emitted="43" running="42" waiting="1" ended="1" meanWaitingTime="0.09" meanTravelTime="22.00" duration="0" />
    <emission-state time="44.00" loaded="200" emitted="44" running="42" waiting="1" ended="2" meanWaitingTime="0.09" meanTravelTime="32.00" duration="1" />
    <emission-state time="45.00" loaded="200" emitted="46" running="44" waiting="0" ended="2" meanWaitingTime="0.22" meanTravelTime="32.00" duration="0" />
    <emission-state time="46.00" loaded="200" emitted="47" running="45" waiting="0" ended="2" meanWaitingTime="0.21" meanTravelTime="32.00" duration="1" />
    <emission-state time="47.00" loaded="200" emitted="48" running="46" waiting="0" ended="2" meanWaitingTime="0.21" meanTravelTime="32.00" duration="0" />
    <emission-state time="48.00" loaded="200" emitted="49" running="47" waiting="0" ended="2" meanWaitingTime="0.20" meanTravelTime="32.00" duration="1" />
    <emission-state time="49.00" loaded="200" emitted="50" running="48" waiting="0" ended="2" meanWaitingTime="0.20" meanTravelTime="32.00" duration="1" />
    <emission-state time="50.00" loaded="200" emitted="51" running="49" waiting="0" ended="2" meanWaitingTime="0.20" meanTravelTime="32.00" duration="1" />
    <emission-state time="51.00" loaded="200" emitted="52" running="50" waiting="0" ended="2" meanWaitingTime="0.19" meanTravelTime="32.00" duration="1" />
    <emission-state time="52.00" loaded="200" emitted="52" running="50" waiting="1" ended="2" meanWaitingTime="0.19" meanTravelTime="32.00" duration="1" />
    <emission-state time="53.00" loaded="200" emitted="53" running="50" waiting="1" ended="3" meanWaitingTime="0.21" meanTravelTime="34.67" duration="1" />
    <emission-state time="54.00" loaded="200" emitted="54" running="51" waiting="1" ended="3" meanWaitingTime="0.20" meanTravelTime="34.67" duration="1" />
    <emission-state time="55.00" loaded="200" emitted="55" running="52" waiting="1" ended="3" meanWaitingTime="0.20" meanTravelTime="34.67" duration="1" />
    <emission-state time="56.00" loaded="200" emitted="57" running="54" waiting="0" ended="3" meanWaitingTime="0.25" meanTravelTime="34.67" duration="1" />
    <emission-state time="57.00" loaded="200" emitted="58" running="55" waiting="0" ended="3" meanWaitingTime="0.24" meanTravelTime="34.67" duration="1" />
    <emission-state time="58.00" loaded="200" emitted="59" running="56" waiting="0" ended="3" meanWaitingTime="0.24" meanTravelTime="34.67" duration="1" />
    <emission-state time="59.00" loaded="200" emitted="60" running="57" waiting="0" ended="3" meanWaitingTime="0.23" meanTravelTime="34.67" duration="1" />
    <emission-state time="60.00" loaded="200" emitted="60" running="57" waiting="1" ended="3" meanWaitingTime="0.23" meanTravelTime="34.67" duration="1" />
    <emission-state time="61.00" loaded="200" emitted="62" running="59" waiting="0" ended="3" meanWaitingTime="0.24" meanTravelTime="34.67" duration="1" />
    <emission-state time="62.00" loaded="200" emitted="62" running="58" waiting="1" ended="4" meanWaitingTime="0.24" meanTravelTime="36.75" duration="1" />
    <emission-state time="63.00" loaded="200" emitted="63" running="59" waiting="1" ended="4" meanWaitingTime="0.24" meanTravelTime="36.75" duration="1" />
    <emission-state time="64.00" loaded="200" emitted="64" running="60" waiting="1" ended="4" meanWaitingTime="0.27" meanTravelTime="36.75" duration="1" />
    <emission-state time="65.00" loaded="200" emitted="65" running="60" waiting="1" ended="5" meanWaitingTime="0.26" meanTravelTime="39.00" duration="1" />
    <emission-state time="66.00" loaded="200" emitted="66" running="61" waiting="1" ended="5" meanWaitingTime="0.26" meanTravelTime="39.00" duration="1" />
    <emission-state time="67.00" loaded="200" emitted="67" running="61" waiting="1" ended="6" meanWaitingTime="0.30" meanTravelTime="36.50" duration="1" />
    <emission-state time="68.00" loaded="200" emitted="67" running="60" waiting="2" ended="7" meanWaitingTime="0.30" meanTravelTime="41.00" duration="1" />
    <emission-state time="69.00" loaded="200" emitted="67" running="60" waiting="3" ended="7" meanWaitingTime="0.30" meanTravelTime="41.00" duration="1" />
    <emission-state time="70.00" loaded="200" emitted="67" running="60" waiting="4" ended="7" meanWaitingTime="0.30" meanTravelTime="41.00" duration="1" />
    <emission-state time="71.00" loaded="200" emitted="71" running="64" waiting="1" ended="7" meanWaitingTime="0.38" meanTravelTime="41.00" duration="1" />
    <emission-state time="72.00" loaded="200" emitted="72" running="65" waiting="1" ended="7" meanWaitingTime="0.38" meanTravelTime="41.00" duration="1" />
    <emission-state time="73.00" loaded="200" emitted="74" running="67" waiting="0" ended="7" meanWaitingTime="0.43" meanTravelTime="41.00" duration="1" />
    <emission-state time="74.00" loaded="200" emitted="74" running="66" waiting="1" ended="8" meanWaitingTime="0.43" meanTravelTime="38.50" duration="1" />
    <emission-state time="75.00" loaded="200" emitted="75" running="67" waiting="1" ended="8" meanWaitingTime="0.44" meanTravelTime="38.50" duration="1" />
    <emission-state time="76.00" loaded="200" emitted="75" running="67" waiting="2" ended="8" meanWaitingTime="0.44" meanTravelTime="38.50" duration="1" />
    <emission-state time="77.00" loaded="200" emitted="75" running="67" waiting="3" ended="8" meanWaitingTime="0.44" meanTravelTime="38.50" duration="1" />
    <emission-state time="78.00" loaded="200" emitted="78" running="69" waiting="1" ended="9" meanWaitingTime="0.49" meanTravelTime="39.11" duration="1" />
    <emission-state time="79.00" loaded="200" emitted="79" running="68" waiting="1" ended="11" meanWaitingTime="0.48" meanTravelTime="40.00" duration="1" />
    <emission-state time="80.00" loaded="200" emitted="80" running="69" waiting="1" ended="11" meanWaitingTime="0.47" meanTravelTime="40.00" duration="1" />
    <emission-state time="81.00" loaded="200" emitted="80" running="69" waiting="2" ended="11" meanWaitingTime="0.47" meanTravelTime="40.00" duration="1" />
    <emission-state time="82.00" loaded="200" emitted="81" running="69" waiting="2" ended="12" meanWaitingTime="0.53" meanTravelTime="42.17" duration="1" />
    <emission-state time="83.00" loaded="200" emitted="84" running="72" waiting="0" ended="12" meanWaitingTime="0.55" meanTravelTime="42.17" duration="1" />
    <emission-state time="84.00" loaded="200" emitted="85" running="73" waiting="0" ended="12" meanWaitingTime="0.54" meanTravelTime="42.17" duration="1" />
    <emission-state time="85.00" loaded="200" emitted="86" running="73" waiting="0" ended="13" meanWaitingTime="0.53" meanTravelTime="45.08" duration="1" />
    <emission-state time="86.00" loaded="200" emitted="87" running="74" waiting="0" ended="13" meanWaitingTime="0.53" meanTravelTime="45.08" duration="1" />
    <emission-state time="87.00" loaded="200" emitted="87" running="74" waiting="1" ended="13" meanWaitingTime="0.53" meanTravelTime="45.08" duration="1" />
    <emission-state time="88.00" loaded="200" emitted="87" running="74" waiting="2" ended="13" meanWaitingTime="0.53" meanTravelTime="45.08" duration="1" />
    <emission-state time="89.00" loaded="200" emitted="89" running="76" waiting="1" ended="13" meanWaitingTime="0.55" meanTravelTime="45.08" duration="1" />
    <emission-state time="90.00" loaded="200" emitted="90" running="77" waiting="1" ended="13" meanWaitingTime="0.54" meanTravelTime="45.08" duration="1" />
    <emission-state time="91.00" loaded="200" emitted="90" running="77" waiting="2" ended="13" meanWaitingTime="0.54" meanTravelTime="45.08" duration="1" />
    <emission-state time="92.00" loaded="200" emitted="91" running="77" waiting="2" ended="14" meanWaitingTime="0.54" meanTravelTime="46.43" duration="1" />
    <emission-state time="93.00" loaded="200" emitted="93" running="79" waiting="1" ended="14" meanWaitingTime="0.55" meanTravelTime="46.43" duration="1" />
    <emission-state time="94.00" loaded="200" emitted="95" running="80" waiting="0" ended="15" meanWaitingTime="0.59" meanTravelTime="47.60" duration="1" />
    <emission-state time="95.00" loaded="200" emitted="96" running="81" waiting="0" ended="15" meanWaitingTime="0.58" meanTravelTime="47.60" duration="2" />
    <emission-state time="96.00" loaded="200" emitted="96" running="79" waiting="1" ended="17" meanWaitingTime="0.58" meanTravelTime="51.12" duration="2" />
    <emission-state time="97.00" loaded="200" emitted="96" running="78" waiting="2" ended="18" meanWaitingTime="0.58" meanTravelTime="53.22" duration="1" />
    <emission-state time="98.00" loaded="200" emitted="97" running="79" waiting="2" ended="18" meanWaitingTime="0.58" meanTravelTime="53.22" duration="1" />
    <emission-state time="99.00" loaded="200" emitted="97" running="78" waiting="3" ended="19" meanWaitingTime="0.58" meanTravelTime="55.47" duration="2" />
    <emission-state time="100.00" loaded="200" emitted="99" running="80" waiting="2" ended="19" meanWaitingTime="0.58" meanTravelTime="55.47" duration="2" />
    <emission-state time="101.00" loaded="200" emitted="100" running="80" waiting="2" ended="20" meanWaitingTime="0.61" meanTravelTime="53.80" duration="2" />
    <emission-state time="102.00" loaded="200" emitted="101" running="81" waiting="2" ended="20" meanWaitingTime="0.60" meanTravelTime="53.80" duration="2" />
    <emission-state time="103.00" loaded="200" emitted="103" running="82" waiting="1" ended="21" meanWaitingTime="0.61" meanTravelTime="55.71" duration="2" />
    <emission-state time="104.00" loaded="200" emitted="103" running="81" waiting="2" ended="22" meanWaitingTime="0.61" meanTravelTime="56.41" duration="2" />
    <emission-state time="105.00" loaded="200" emitted="105" running="82" waiting="1" ended="23" meanWaitingTime="0.61" meanTravelTime="55.70" duration="2" />
    <emission-state time="106.00" loaded="200" emitted="106" running="83" waiting="1" ended="23" meanWaitingTime="0.70" meanTravelTime="55.70" duration="2" />
    <emission-state time="107.00" loaded="200" emitted="107" running="83" waiting="1" ended="24" meanWaitingTime="0.70" meanTravelTime="56.92" duration="2" />
    <emission-state time="108.00" loaded="200" emitted="107" running="83" waiting="2" ended="24" meanWaitingTime="0.70" meanTravelTime="56.92" duration="2" />
    <emission-state time="109.00" loaded="200" emitted="107" running="82" waiting="3" ended="25" meanWaitingTime="0.70" meanTravelTime="58.44" duration="2" />
    <emission-state time="110.00" loaded="200" emitted="107" running="82" waiting="4" ended="25" meanWaitingTime="0.70" meanTravelTime="58.44" duration="2" />
    <emission-state time="111.00" loaded="200" emitted="108" running="83" waiting="4" ended="25" meanWaitingTime="0.73" meanTravelTime="58.44" duration="2" />
    <emission-state time="112.00" loaded="200" emitted="110" running="84" waiting="3" ended="26" meanWaitingTime="0.74" meanTravelTime="60.46" duration="2" />
    <emission-state time="113.00" loaded="200" emitted="112" running="85" waiting="2" ended="27" meanWaitingTime="0.77" meanTravelTime="60.70" duration="2" />
    <emission-state time="114.00" loaded="200" emitted="113" running="86" waiting="2" ended="27" meanWaitingTime="0.76" meanTravelTime="60.70" duration="2" />
    <emission-state time="115.00" loaded="200" emitted="116" running="89" waiting="0" ended="27" meanWaitingTime="0.83" meanTravelTime="60.70" duration="2" />
    <emission-state time="116.00" loaded="200" emitted="117" running="89" waiting="0" ended="28" meanWaitingTime="0.82" meanTravelTime="61.64" duration="2" />
    <emission-state time="117.00" loaded="200" emitted="118" running="90" waiting="0" ended="28" meanWaitingTime="0.81" meanTravelTime="61.64" duration="2" />
    <emission-state time="118.00" loaded="200" emitted="118" running="90" waiting="1" ended="28" meanWaitingTime="0.81" meanTravelTime="61.64" duration="2" />
    <emission-state time="119.00" loaded="200" emitted="118" running="90" waiting="2" ended="28" meanWaitingTime="0.81" meanTravelTime="61.64" duration="2" />
    <emission-state time="120.00" loaded="200" emitted="119" running="90" waiting="2" ended="29" meanWaitingTime="0.82" meanTravelTime="63.41" duration="2" />
    <emission-state time="121.00" loaded="200" emitted="119" running="90" waiting="3" ended="29" meanWaitingTime="0.82" meanTravelTime="63.41" duration="1" />
    <emission-state time="122.00" loaded="200" emitted="121" running="90" waiting="2" ended="31" meanWaitingTime="0.83" meanTravelTime="63.87" duration="2" />
    <emission-state time="123.00" loaded="200" emitted="123" running="92" waiting="1" ended="31" meanWaitingTime="0.83" meanTravelTime="63.87" duration="2" />
    <emission-state time="124.00" loaded="200" emitted="124" running="93" waiting="1" ended="31" meanWaitingTime="0.82" meanTravelTime="63.87" duration="1" />
    <emission-state time="125.00" loaded="200" emitted="124" running="90" waiting="2" ended="34" meanWaitingTime="0.82" meanTravelTime="67.24" duration="1" />
    <emission-state time="126.00" loaded="200" emitted="125" running="88" waiting="2" ended="37" meanWaitingTime="0.82" meanTravelTime="67.38" duration="2" />
    <emission-state time="127.00" loaded="200" emitted="126" running="88" waiting="2" ended="38" meanWaitingTime="0.88" meanTravelTime="68.11" duration="1" />
    <emission-state time="128.00" loaded="200" emitted="128" running="88" waiting="1" ended="40" meanWaitingTime="0.88" meanTravelTime="69.78" duration="2" />
    <emission-state time="129.00" loaded="200" emitted="129" running="88" waiting="1" ended="41" meanWaitingTime="0.89" meanTravelTime="70.02" duration="1" />
    <emission-state time="130.00" loaded="200" emitted="130" running="88" waiting="1" ended="42" meanWaitingTime="0.88" meanTravelTime="69.95" duration="1" />
    <emission-state time="131.00" loaded="200" emitted="130" running="87" waiting="2" ended="43" meanWaitingTime="0.88" meanTravelTime="70.81" duration="1" />
    <emission-state time="132.00" loaded="200" emitted="130" running="86" waiting="3" ended="44" meanWaitingTime="0.88" meanTravelTime="71.32" duration="1" />
    <emission-state time="133.00" loaded="200" emitted="133" running="88" waiting="1" ended="45" meanWaitingTime="0.90" meanTravelTime="72.18" duration="2" />
    <emission-state time="134.00" loaded="200" emitted="133" running="86" waiting="2" ended="47" meanWaitingTime="0.90" meanTravelTime="71.83" duration="2" />
    <emission-state time="135.00" loaded="200" emitted="134" running="86" waiting="2" ended="48" meanWaitingTime="0.90" meanTravelTime="72.21" duration="2" />
    <emission-state time="136.00" loaded="200" emitted="135" running="87" waiting="2" ended="48" meanWaitingTime="0.90" meanTravelTime="72.21" duration="1" />
    <emission-state time="137.00" loaded="200" emitted="137" running="89" waiting="1" ended="48" meanWaitingTime="0.93" meanTravelTime="72.21" duration="2" />
    <emission-state time="138.00" loaded="200" emitted="137" running="89" waiting="2" ended="48" meanWaitingTime="0.93" meanTravelTime="72.21" duration="1" />
    <emission-state time="139.00" loaded="200" emitted="139" running="89" waiting="1" ended="50" meanWaitingTime="0.92" meanTravelTime="72.96" duration="1" />
    <emission-state time="140.00" loaded="200" emitted="140" running="89" waiting="1" ended="51" meanWaitingTime="0.95" meanTravelTime="73.22" duration="1" />
    <emission-state time="141.00" loaded="200" emitted="141" running="89" waiting="1" ended="52" meanWaitingTime="0.94" meanTravelTime="73.35" duration="2" />
    <emission-state time="142.00" loaded="200" emitted="142" running="90" waiting="1" ended="52" meanWaitingTime="0.94" meanTravelTime="73.35" duration="2" />
    <emission-state time="143.00" loaded="200" emitted="144" running="92" waiting="0" ended="52" meanWaitingTime="0.94" meanTravelTime="73.35" duration="2" />
    <emission-state time="144.00" loaded="200" emitted="144" running="92" waiting="1" ended="52" meanWaitingTime="0.94" meanTravelTime="73.35" duration="2" />
    <emission-state time="145.00" loaded="200" emitted="145" running="90" waiting="1" ended="55" meanWaitingTime="0.94" meanTravelTime="75.33" duration="2" />
    <emission-state time="146.00" loaded="200" emitted="146" running="91" waiting="1" ended="55" meanWaitingTime="0.94" meanTravelTime="75.33" duration="2" />
    <emission-state time="147.00" loaded="200" emitted="147" running="90" waiting="1" ended="57" meanWaitingTime="0.93" meanTravelTime="76.02" duration="1" />
    <emission-state time="148.00" loaded="200" emitted="149" running="90" waiting="0" ended="59" meanWaitingTime="0.94" meanTravelTime="76.22" duration="1" />
    <emission-state time="149.00" loaded="200" emitted="150" running="90" waiting="0" ended="60" meanWaitingTime="0.93" meanTravelTime="76.70" duration="2" />
    <emission-state time="150.00" loaded="200" emitted="151" running="90" waiting="0" ended="61" meanWaitingTime="0.93" meanTravelTime="76.26" duration="1" />
    <emission-state time="151.00" loaded="200" emitted="151" running="90" waiting="1" ended="61" meanWaitingTime="0.93" meanTravelTime="76.26" duration="1" />
    <emission-state time="152.00" loaded="200" emitted="152" running="91" waiting="1" ended="61" meanWaitingTime="0.92" meanTravelTime="76.26" duration="2" />
    <emission-state time="153.00" loaded="200" emitted="152" running="91" waiting="2" ended="61" meanWaitingTime="0.92" meanTravelTime="76.26" duration="1" />
    <emission-state time="154.00" loaded="200" emitted="153" running="92" waiting="2" ended="61" meanWaitingTime="0.93" meanTravelTime="76.26" duration="1" />
    <emission-state time="155.00" loaded="200" emitted="154" running="92" waiting="2" ended="62" meanWaitingTime="0.94" meanTravelTime="75.90" duration="2" />
    <emission-state time="156.00" loaded="200" emitted="155" running="92" waiting="2" ended="63" meanWaitingTime="0.94" meanTravelTime="75.81" duration="2" />
    <emission-state time="157.00" loaded="200" emitted="156" running="91" waiting="2" ended="65" meanWaitingTime="0.93" meanTravelTime="76.91" duration="1" />
    <emission-state time="158.00" loaded="200" emitted="158" running="93" waiting="1" ended="65" meanWaitingTime="0.94" meanTravelTime="76.91" duration="2" />
    <emission-state time="159.00" loaded="200" emitted="160" running="95" waiting="0" ended="65" meanWaitingTime="0.96" meanTravelTime="76.91" duration="1" />
    <emission-state time="160.00" loaded="200" emitted="161" running="93" waiting="0" ended="68" meanWaitingTime="0.95" meanTravelTime="76.12" duration="2" />
    <emission-state time="161.00" loaded="200" emitted="161" running="91" waiting="1" ended="70" meanWaitingTime="0.95" meanTravelTime="76.63" duration="1" />
    <emission-state time="162.00" loaded="200" emitted="163" running="93" waiting="0" ended="70" meanWaitingTime="0.94" meanTravelTime="76.63" duration="2" />
    <emission-state time="163.00" loaded="200" emitted="164" running="91" waiting="0" ended="73" meanWaitingTime="0.94" meanTravelTime="75.99" duration="2" />
    <emission-state time="164.00" loaded="200" emitted="165" running="92" waiting="0" ended="73" meanWaitingTime="0.93" meanTravelTime="75.99" duration="2" />
    <emission-state time="165.00" loaded="200" emitted="165" running="90" waiting="1" ended="75" meanWaitingTime="0.93" meanTravelTime="76.71" duration="1" />
    <emission-state time="166.00" loaded="200" emitted="166" running="90" waiting="1" ended="76" meanWaitingTime="0.93" meanTravelTime="76.89" duration="2" />
    <emission-state time="167.00" loaded="200" emitted="168" running="91" waiting="0" ended="77" meanWaitingTime="0.93" meanTravelTime="76.69" duration="2" />
    <emission-state time="168.00" loaded="200" emitted="169" running="91" waiting="0" ended="78" meanWaitingTime="0.92" meanTravelTime="76.29" duration="1" />
    <emission-state time="169.00" loaded="200" emitted="169" running="89" waiting="1" ended="80" meanWaitingTime="0.92" meanTravelTime="76.17" duration="2" />
    <emission-state time="170.00" loaded="200" emitted="170" running="90" waiting="1" ended="80" meanWaitingTime="0.92" meanTravelTime="76.17" duration="1" />
    <emission-state time="171.00" loaded="200" emitted="171" running="88" waiting="1" ended="83" meanWaitingTime="0.91" meanTravelTime="76.39" duration="2" />
    <emission-state time="172.00" loaded="200" emitted="172" running="88" waiting="1" ended="84" meanWaitingTime="0.92" meanTravelTime="76.57" duration="1" />
    <emission-state time="173.00" loaded="200" emitted="173" running="88" waiting="1" ended="85" meanWaitingTime="0.92" meanTravelTime="77.22" duration="1" />
    <emission-state time="174.00" loaded="200" emitted="173" running="88" waiting="2" ended="85" meanWaitingTime="0.92" meanTravelTime="77.22" duration="1" />
    <emission-state time="175.00" loaded="200" emitted="174" running="88" waiting="2" ended="86" meanWaitingTime="0.93" meanTravelTime="77.16" duration="1" />
    <emission-state time="176.00" loaded="200" emitted="174" running="88" waiting="3" ended="86" meanWaitingTime="0.93" meanTravelTime="77.16" duration="2" />
    <emission-state time="177.00" loaded="200" emitted="176" running="90" waiting="2" ended="86" meanWaitingTime="0.93" meanTravelTime="77.16" duration="1" />
    <emission-state time="178.00" loaded="200" emitted="178" running="92" waiting="1" ended="86" meanWaitingTime="0.96" meanTravelTime="77.16" duration="1" />
    <emission-state time="179.00" loaded="200" emitted="178" running="91" waiting="2" ended="87" meanWaitingTime="0.96" meanTravelTime="76.86" duration="1" />