<?xml version="1.0"?>

<!-- generated on 2014/10/23 ¤U¤È 04:55:16 by SUMO gui Version 0.12.3
<?xml version="1.0" encoding="iso-8859-1"?>

<configuration xmlns:xsi="http://www.w3.org/2001/XMLSchema-instance" xsi:noNamespaceSchemaLocation="http://sumo.sf.net/xsd/sumo-gui.exeConfiguration.xsd">

    <input>
        <net-file value="C:\Users\mikelei\Desktop\sumo-0.12.3\mikelei\gpsr_test\test.net.xml"/>
        <route-files value="C:\Users\mikelei\Desktop\sumo-0.12.3\mikelei\gpsr_test\test.rou.xml"/>
    </input>

    <output>
        <netstate-dump value="C:\Users\mikelei\Desktop\sumo-0.12.3\mikelei\gpsr_test\test.sumo.tr"/>
        <emissions-output value="C:\Users\mikelei\Desktop\sumo-0.12.3\mikelei\gpsr_test\output-emissions.xml"/>
        <tripinfo-output value="C:\Users\mikelei\Desktop\sumo-0.12.3\mikelei\gpsr_test\output-tripinfos.xml"/>
        <vehroute-output value="C:\Users\mikelei\Desktop\sumo-0.12.3\mikelei\gpsr_test\output-vehroutes.xml"/>
    </output>

    <time>
        <begin value="0"/>
        <end value="200"/>
    </time>

    <processing>
        <route-steps value="-1"/>
        <time-to-teleport value="-1"/>
    </processing>

    <report>
        <print-options value="false"/>
    </report>

    <random_number>
        <srand value="23423"/>
    </random_number>

    <gui_only>
        <gui-settings-file value=""/>
    </gui_only>

</configuration>
-->

<sumo-netstate>
    <timestep time="0.00">
        <edge id="2/2to1/2">
            <lane id="2/2to1/2_0">
                <vehicle id="t0" pos="7.60" speed="0.00"/>
            </lane>
        </edge>
    </timestep>
    <timestep time="1.00">
        <edge id="1/0to0/0">
            <lane id="1/0to0/0_0">
                <vehicle id="t1" pos="7.60" speed="0.00"/>
            </lane>
        </edge>
        <edge id="2/2to1/2">
            <lane id="2/2to1/2_0">
                <vehicle id="t0" pos="9.08" speed="1.48"/>
            </lane>
        </edge>
    </timestep>
    <timestep time="2.00">
        <edge id="1/0to0/0">
            <lane id="1/0to0/0_0">
                <vehicle id="t1" pos="10.14" speed="2.54"/>
            </lane>
        </edge>
        <edge id="2/0to1/0">
            <lane id="2/0to1/0_0">
                <vehicle id="t2" pos="7.60" speed="0.00"/>
            </lane>
        </edge>
        <edge id="2/2to1/2">
            <lane id="2/2to1/2_0">
                <vehicle id="t0" pos="12.24" speed="3.16"/>
            </lane>
        </edge>
    </timestep>
    <timestep time="3.00">
        <edge id="1/0to0/0">
            <lane id="1/0to0/0_0">
                <vehicle id="t1" pos="14.48" speed="4.34"/>
            </lane>
        </edge>
        <edge id="2/0to1/0">
            <lane id="2/0to1/0_0">
                <vehicle id="t2" pos="10.15" speed="2.55"/>
            </lane>
        </edge>
        <edge id="2/2to1/2">
            <lane id="2/2to1/2_0">
                <vehicle id="t0" pos="17.29" speed="5.05"/>
            </lane>
        </edge>
        <edge id="2/2to3/2">
            <lane id="2/2to3/2_0">
                <vehicle id="t3" pos="7.60" speed="0.00"/>
            </lane>
        </edge>
    </timestep>
    <timestep time="4.00">
        <edge id="1/0to0/0">
            <lane id="1/0to0/0_0">
                <vehicle id="t1" pos="20.97" speed="6.49"/>
            </lane>
        </edge>
        <edge id="2/0to1/0">
            <lane id="2/0to1/0_0">
                <vehicle id="t2" pos="14.54" speed="4.39"/>
            </lane>
        </edge>
        <edge id="2/2to1/2">
            <lane id="2/2to1/2_0">
                <vehicle id="t0" pos="23.89" speed="6.60"/>
            </lane>
        </edge>
        <edge id="2/2to2/3">
            <lane id="2/2to2/3_0">
                <vehicle id="t4" pos="7.60" speed="0.00"/>
            </lane>
        </edge>
        <edge id="2/2to3/2">
            <lane id="2/2to3/2_0">
                <vehicle id="t3" pos="9.27" speed="1.67"/>
            </lane>
        </edge>
    </timestep>
    <timestep time="5.00">
        <edge id="1/0to0/0">
            <lane id="1/0to0/0_0">
                <vehicle id="t1" pos="29.05" speed="8.08"/>
            </lane>
        </edge>
        <edge id="2/0to1/0">
            <lane id="2/0to1/0_0">
                <vehicle id="t2" pos="20.82" speed="6.28"/>
            </lane>
        </edge>
        <edge id="2/2to1/2">
            <lane id="2/2to1/2_0">
                <vehicle id="t0" pos="32.84" speed="8.95"/>
            </lane>
        </edge>
        <edge id="2/2to2/3">
            <lane id="2/2to2/3_0">
                <vehicle id="t4" pos="9.49" speed="1.89"/>
            </lane>
        </edge>
        <edge id="2/2to3/2">
            <lane id="2/2to3/2_0">
                <vehicle id="t3" pos="12.92" speed="3.65"/>
            </lane>
        </edge>
        <edge id="2/4to1/4">
            <lane id="2/4to1/4_0">
                <vehicle id="t5" pos="7.60" speed="0.00"/>
            </lane>
        </edge>
    </timestep>
    <timestep time="6.00">
        <edge id="1/0to0/0">
            <lane id="1/0to0/0_0">
                <vehicle id="t1" pos="39.36" speed="10.31"/>
            </lane>
        </edge>
        <edge id="2/0to1/0">
            <lane id="2/0to1/0_0">
                <vehicle id="t2" pos="28.47" speed="7.65"/>
            </lane>
        </edge>
        <edge id="2/2to1/2">
            <lane id="2/2to1/2_0">
                <vehicle id="t0" pos="43.77" speed="10.93"/>
            </lane>
        </edge>
        <edge id="2/2to2/3">
            <lane id="2/2to2/3_0">
                <vehicle id="t4" pos="13.08" speed="3.59"/>
            </lane>
        </edge>
        <edge id="2/2to3/2">
            <lane id="2/2to3/2_0">
                <vehicle id="t3" pos="18.66" speed="5.74"/>
            </lane>
        </edge>
        <edge id="2/3to3/3">
            <lane id="2/3to3/3_0">
                <vehicle id="t6" pos="7.60" speed="0.00"/>
            </lane>
        </edge>
        <edge id="2/4to1/4">
            <lane id="2/4to1/4_0">
                <vehicle id="t5" pos="10.14" speed="2.54"/>
            </lane>
        </edge>
    </timestep>
    <timestep time="7.00">
        <edge id="0/1to0/2">
            <lane id="0/1to0/2_0">
                <vehicle id="t7" pos="7.60" speed="0.00"/>
            </lane>
        </edge>
        <edge id="1/0to0/0">
            <lane id="1/0to0/0_0">
                <vehicle id="t1" pos="51.56" speed="12.20"/>
            </lane>
        </edge>
        <edge id="2/0to1/0">
            <lane id="2/0to1/0_0">
                <vehicle id="t2" pos="37.74" speed="9.26"/>
            </lane>
        </edge>
        <edge id="2/2to1/2">
            <lane id="2/2to1/2_0">
                <vehicle id="t0" pos="56.35" speed="12.58"/>
            </lane>
        </edge>
        <edge id="2/2to2/3">
            <lane id="2/2to2/3_0">
                <vehicle id="t4" pos="18.16" speed="5.08"/>
            </lane>
        </edge>
        <edge id="2/2to3/2">
            <lane id="2/2to3/2_0">
                <vehicle id="t3" pos="25.70" speed="7.04"/>
            </lane>
        </edge>
        <edge id="2/3to3/3">
            <lane id="2/3to3/3_0">
                <vehicle id="t6" pos="9.70" speed="2.10"/>
            </lane>
        </edge>
        <edge id="2/4to1/4">
            <lane id="2/4to1/4_0">
                <vehicle id="t5" pos="14.12" speed="3.98"/>
            </lane>
        </edge>
    </timestep>
    <timestep time="8.00">
        <edge id="0/1to0/2">
            <lane id="0/1to0/2_0">
                <vehicle id="t7" pos="10.16" speed="2.56"/>
            </lane>
        </edge>
        <edge id="1/0to0/0">
            <lane id="1/0to0/0_0">
                <vehicle id="t1" pos="65.21" speed="13.65"/>
            </lane>
        </edge>
        <edge id="2/0to1/0">
            <lane id="2/0to1/0_0">
                <vehicle id="t2" pos="49.22" speed="11.48"/>
            </lane>
        </edge>
        <edge id="2/2to1/2">
            <lane id="2/2to1/2_0">
                <vehicle id="t0" pos="69.68" speed="13.33"/>
            </lane>
        </edge>
        <edge id="2/2to2/3">
            <lane id="2/2to2/3_0">
                <vehicle id="t4" pos="24.76" speed="6.60"/>
            </lane>
        </edge>
        <edge id="2/2to3/2">
            <lane id="2/2to3/2_0">
                <vehicle id="t3" pos="34.74" speed="9.04"/>
            </lane>
        </edge>
        <edge id="2/3to3/3">
            <lane id="2/3to3/3_0">
                <vehicle id="t6" pos="13.17" speed="3.46"/>
            </lane>
        </edge>
        <edge id="2/4to1/4">
            <lane id="2/4to1/4_0">
                <vehicle id="t5" pos="20.36" speed="6.24"/>
            </lane>
        </edge>
        <edge id="3/1to2/1">
            <lane id="3/1to2/1_0">
                <vehicle id="t8" pos="7.60" speed="0.00"/>
            </lane>
        </edge>
    </timestep>
    <timestep time="9.00">
        <edge id="0/1to0/2">
            <lane id="0/1to0/2_0">
                <vehicle id="t7" pos="14.96" speed="4.80"/>
            </lane>
        </edge>
        <edge id="1/0to0/0">
            <lane id="1/0to0/0_0">
                <vehicle id="t1" pos="78.77" speed="13.55"/>
            </lane>
        </edge>
        <edge id="1/1to1/2">
            <lane id="1/1to1/2_0">
                <vehicle id="t9" pos="7.60" speed="0.00"/>
            </lane>
        </edge>
        <edge id="2/0to1/0">
            <lane id="2/0to1/0_0">
                <vehicle id="t2" pos="62.74" speed="13.52"/>
            </lane>
        </edge>
        <edge id="2/2to1/2">
            <lane id="2/2to1/2_0">
                <vehicle id="t0" pos="82.87" speed="13.19"/>
            </lane>
        </edge>
        <edge id="2/2to2/3">
            <lane id="2/2to2/3_0">
                <vehicle id="t4" pos="33.24" speed="8.49"/>
            </lane>
        </edge>
        <edge id="2/2to3/2">
            <lane id="2/2to3/2_0">
                <vehicle id="t3" pos="45.91" speed="11.17"/>
            </lane>
        </edge>
        <edge id="2/3to3/3">
            <lane id="2/3to3/3_0">
                <vehicle id="t6" pos="18.79" speed="5.62"/>
            </lane>
        </edge>
        <edge id="2/4to1/4">
            <lane id="2/4to1/4_0">
                <vehicle id="t5" pos="27.87" speed="7.51"/>
            </lane>
        </edge>
        <edge id="3/1to2/1">
            <lane id="3/1to2/1_0">
                <vehicle id="t8" pos="9.99" speed="2.39"/>
            </lane>
        </edge>
    </timestep>
    <timestep time="10.00">
        <edge id="0/1to0/2">
            <lane id="0/1to0/2_0">
                <vehicle id="t7" pos="21.37" speed="6.41"/>
            </lane>
        </edge>
        <edge id="1/0to0/0">
            <lane id="1/0to0/0_0">
                <vehicle id="t1" pos="92.42" speed="13.65"/>
            </lane>
        </edge>
        <edge id="1/1to1/2">
            <lane id="1/1to1/2_0">
                <vehicle id="t9" pos="9.00" speed="1.40"/>
            </lane>
        </edge>
        <edge id="1/3to0/3">
            <lane id="1/3to0/3_0">
                <vehicle id="t10" pos="7.60" speed="0.00"/>
            </lane>
        </edge>
        <edge id="2/0to1/0">
            <lane id="2/0to1/0_0">
                <vehicle id="t2" pos="75.79" speed="13.05"/>
            </lane>
        </edge>
        <edge id="2/2to1/2">
            <lane id="2/2to1/2_0">
                <vehicle id="t0" pos="96.18" speed="13.30"/>
            </lane>
        </edge>
        <edge id="2/2to2/3">
            <lane id="2/2to2/3_0">
                <vehicle id="t4" pos="43.28" speed="10.04"/>
            </lane>
        </edge>
        <edge id="2/2to3/2">
            <lane id="2/2to3/2_0">
                <vehicle id="t3" pos="59.17" speed="13.26"/>
            </lane>
        </edge>
        <edge id="2/3to3/3">
            <lane id="2/3to3/3_0">
                <vehicle id="t6" pos="26.11" speed="7.33"/>
            </lane>
        </edge>
        <edge id="2/4to1/4">
            <lane id="2/4to1/4_0">
                <vehicle id="t5" pos="36.90" speed="9.03"/>
            </lane>
        </edge>
        <edge id="3/1to2/1">
            <lane id="3/1to2/1_0">
                <vehicle id="t8" pos="13.76" speed="3.77"/>
            </lane>
        </edge>
    </timestep>
    <timestep time="11.00">
        <edge id="0/1to0/2">
            <lane id="0/1to0/2_0">
                <vehicle id="t7" pos="29.98" speed="8.60"/>
            </lane>
        </edge>
        <edge id="1/0to0/0">
            <lane id="1/0to0/0_0">
                <vehicle id="t1" pos="105.80" speed="13.39"/>
            </lane>
        </edge>
        <edge id="1/1to1/2">
            <lane id="1/1to1/2_0">
                <vehicle id="t9" pos="12.60" speed="3.60"/>
            </lane>
        </edge>
        <edge id="1/3to0/3">
            <lane id="1/3to0/3_0">
                <vehicle id="t10" pos="9.52" speed="1.92"/>
            </lane>
        </edge>
        <edge id="1/3to1/4">
            <lane id="1/3to1/4_0">
                <vehicle id="t11" pos="7.60" speed="0.00"/>
            </lane>
        </edge>
        <edge id="2/0to1/0">
            <lane id="2/0to1/0_0">
                <vehicle id="t2" pos="89.09" speed="13.30"/>
            </lane>
        </edge>
        <edge id="2/2to1/2">
            <lane id="2/2to1/2_0">
                <vehicle id="t0" pos="109.75" speed="13.58"/>
            </lane>
        </edge>
        <edge id="2/2to2/3">
            <lane id="2/2to2/3_0">
                <vehicle id="t4" pos="54.52" speed="11.24"/>
            </lane>
        </edge>
        <edge id="2/2to3/2">
            <lane id="2/2to3/2_0">
                <vehicle id="t3" pos="72.90" speed="13.72"/>
            </lane>
        </edge>
        <edge id="2/3to3/3">
            <lane id="2/3to3/3_0">
                <vehicle id="t6" pos="35.05" speed="8.93"/>
            </lane>
        </edge>
        <edge id="2/4to1/4">
            <lane id="2/4to1/4_0">
                <vehicle id="t5" pos="48.00" speed="11.10"/>
            </lane>
        </edge>
        <edge id="3/1to2/1">
            <lane id="3/1to2/1_0">
                <vehicle id="t8" pos="19.96" speed="6.20"/>
            </lane>
        </edge>
    </timestep>
    <timestep time="12.00">
        <edge id="0/1to0/2">
            <lane id="0/1to0/2_0">
                <vehicle id="t7" pos="40.24" speed="10.26"/>
            </lane>
        </edge>
        <edge id="1/0to0/0">
            <lane id="1/0to0/0_0">
                <vehicle id="t1" pos="119.63" speed="13.83"/>
            </lane>
        </edge>
        <edge id="1/1to1/2">
            <lane id="1/1to1/2_0">
                <vehicle id="t9" pos="18.46" speed="5.86"/>
            </lane>
        </edge>
        <edge id="1/3to0/3">
            <lane id="1/3to0/3_0">
                <vehicle id="t10" pos="13.90" speed="4.39"/>
            </lane>
        </edge>
        <edge id="1/3to1/4">
            <lane id="1/3to1/4_0">
                <vehicle id="t11" pos="10.10" speed="2.50"/>
            </lane>
        </edge>
        <edge id="2/0to1/0">
            <lane id="2/0to1/0_0">
                <vehicle id="t2" pos="102.80" speed="13.71"/>
            </lane>
        </edge>
        <edge id="2/2to1/2">
            <lane id="2/2to1/2_0">
                <vehicle id="t0" pos="122.69" speed="12.93"/>
            </lane>
        </edge>
        <edge id="2/2to2/3">
            <lane id="2/2to2/3_0">
                <vehicle id="t4" pos="67.62" speed="13.09"/>
            </lane>
        </edge>
        <edge id="2/2to3/2">
            <lane id="2/2to3/2_0">
                <vehicle id="t3" pos="85.76" speed="12.87"/>
            </lane>
        </edge>
        <edge id="2/3to3/3">
            <lane id="2/3to3/3_0">
                <vehicle id="t6" pos="46.16" speed="11.11"/>
            </lane>
        </edge>
        <edge id="2/4to1/4">
            <lane id="2/4to1/4_0">
                <vehicle id="t5" pos="60.93" speed="12.93"/>
            </lane>
        </edge>
        <edge id="3/1to2/1">
            <lane id="3/1to2/1_0">
                <vehicle id="t8" pos="28.29" speed="8.33"/>
            </lane>
        </edge>
        <edge id="4/2to4/1">
            <lane id="4/2to4/1_0">
                <vehicle id="t12" pos="7.60" speed="0.00"/>
            </lane>
        </edge>
    </timestep>
    <timestep time="13.00">
        <edge id="0/1to0/2">
            <lane id="0/1to0/2_0">
                <vehicle id="t7" pos="52.30" speed="12.06"/>
            </lane>
        </edge>
        <edge id="0/3to0/4">
            <lane id="0/3to0/4_0">
                <vehicle id="t13" pos="7.60" speed="0.00"/>
            </lane>
        </edge>
        <edge id="1/0to0/0">
            <lane id="1/0to0/0_0">
                <vehicle id="t1" pos="133.17" speed="13.53"/>
            </lane>
        </edge>
        <edge id="1/1to1/2">
            <lane id="1/1to1/2_0">
                <vehicle id="t9" pos="25.75" speed="7.29"/>
            </lane>
        </edge>
        <edge id="1/3to0/3">
            <lane id="1/3to0/3_0">
                <vehicle id="t10" pos="20.04" speed="6.14"/>
            </lane>
        </edge>
        <edge id="1/3to1/4">
            <lane id="1/3to1/4_0">
                <vehicle id="t11" pos="14.60" speed="4.50"/>
            </lane>
        </edge>
        <edge id="2/0to1/0">
            <lane id="2/0to1/0_0">
                <vehicle id="t2" pos="116.40" speed="13.60"/>
            </lane>
        </edge>
        <edge id="2/2to1/2">
            <lane id="2/2to1/2_0">
                <vehicle id="t0" pos="135.84" speed="13.15"/>
            </lane>
        </edge>
        <edge id="2/2to2/3">
            <lane id="2/2to2/3_0">
                <vehicle id="t4" pos="80.81" speed="13.19"/>
            </lane>
        </edge>
        <edge id="2/2to3/2">
            <lane id="2/2to3/2_0">
                <vehicle id="t3" pos="99.44" speed="13.68"/>
            </lane>
        </edge>
        <edge id="2/3to3/3">
            <lane id="2/3to3/3_0">
                <vehicle id="t6" pos="58.81" speed="12.65"/>
            </lane>
        </edge>
        <edge id="2/4to1/4">
            <lane id="2/4to1/4_0">
                <vehicle id="t5" pos="74.38" speed="13.46"/>
            </lane>
        </edge>
        <edge id="3/1to2/1">
            <lane id="3/1to2/1_0">
                <vehicle id="t8" pos="38.34" speed="10.06"/>
            </lane>
        </edge>
        <edge id="4/2to4/1">
            <lane id="4/2to4/1_0">
                <vehicle id="t12" pos="9.74" speed="2.14"/>
            </lane>
        </edge>
    </timestep>
    <timestep time="14.00">
        <edge id="0/1to0/2">
            <lane id="0/1to0/2_0">
                <vehicle id="t7" pos="65.69" speed="13.39"/>
            </lane>
        </edge>
        <edge id="0/3to0/4">
            <lane id="0/3to0/4_0">
                <vehicle id="t13" pos="8.98" speed="1.38"/>
            </lane>
        </edge>
        <edge id="1/0to0/0">
            <lane id="1/0to0/0_0">
                <vehicle id="t1" pos="147.04" speed="13.88"/>
            </lane>
        </edge>
        <edge id="1/1to1/2">
            <lane id="1/1to1/2_0">
                <vehicle id="t9" pos="34.57" speed="8.82"/>
            </lane>
        </edge>
        <edge id="1/3to0/3">
            <lane id="1/3to0/3_0">
                <vehicle id="t10" pos="28.03" speed="7.99"/>
            </lane>
        </edge>
        <edge id="1/3to1/4">
            <lane id="1/3to1/4_0">
                <vehicle id="t11" pos="20.52" speed="5.91"/>
            </lane>
        </edge>
        <edge id="2/0to1/0">
            <lane id="2/0to1/0_0">
                <vehicle id="t2" pos="129.98" speed="13.58"/>
            </lane>
        </edge>
        <edge id="2/1to2/2">
            <lane id="2/1to2/2_0">
                <vehicle id="t14" pos="7.60" speed="0.00"/>
            </lane>
        </edge>
        <edge id="2/2to1/2">
            <lane id="2/2to1/2_0">
                <vehicle id="t0" pos="148.72" speed="12.88"/>
            </lane>
        </edge>
        <edge id="2/2to2/3">
            <lane id="2/2to2/3_0">
                <vehicle id="t4" pos="93.80" speed="12.99"/>
            </lane>
        </edge>
        <edge id="2/2to3/2">
            <lane id="2/2to3/2_0">
                <vehicle id="t3" pos="113.23" speed="13.79"/>
            </lane>
        </edge>
        <edge id="2/3to3/3">
            <lane id="2/3to3/3_0">
                <vehicle id="t6" pos="71.74" speed="12.94"/>
            </lane>
        </edge>
        <edge id="2/4to1/4">
            <lane id="2/4to1/4_0">
                <vehicle id="t5" pos="87.63" speed="13.25"/>
            </lane>
        </edge>
        <edge id="3/1to2/1">
            <lane id="3/1to2/1_0">
                <vehicle id="t8" pos="50.17" speed="11.83"/>
            </lane>
        </edge>
        <edge id="4/2to4/1">
            <lane id="4/2to4/1_0">
                <vehicle id="t12" pos="13.71" speed="3.97"/>
            </lane>
        </edge>
    </timestep>
    <timestep time="15.00">
        <edge id="0/1to0/2">
            <lane id="0/1to0/2_0">
                <vehicle id="t7" pos="78.77" speed="13.09"/>
            </lane>
        </edge>
        <edge id="0/3to0/4">
            <lane id="0/3to0/4_0">
                <vehicle id="t13" pos="11.83" speed="2.85"/>
            </lane>
        </edge>
        <edge id="1/0to0/0">
            <lane id="1/0to0/0_0">
                <vehicle id="t1" pos="160.52" speed="13.47"/>
            </lane>
        </edge>
        <edge id="1/1to1/2">
            <lane id="1/1to1/2_0">
                <vehicle id="t9" pos="44.89" speed="10.32"/>
            </lane>
        </edge>
        <edge id="1/3to0/3">
            <lane id="1/3to0/3_0">
                <vehicle id="t10" pos="38.19" speed="10.16"/>
            </lane>
        </edge>
        <edge id="1/3to1/4">
            <lane id="1/3to1/4_0">
                <vehicle id="t11" pos="27.99" speed="7.48"/>
            </lane>
        </edge>
        <edge id="2/0to1/0">
            <lane id="2/0to1/0_0">
                <vehicle id="t2" pos="143.53" speed="13.54"/>
            </lane>
        </edge>
        <edge id="2/1to2/2">
            <lane id="2/1to2/2_0">
                <vehicle id="t14" pos="9.73" speed="2.13"/>
            </lane>
        </edge>
        <edge id="2/2to1/2">
            <lane id="2/2to1/2_0">
                <vehicle id="t0" pos="162.31" speed="13.59"/>
            </lane>
        </edge>
        <edge id="2/2to2/3">
            <lane id="2/2to2/3_0">
                <vehicle id="t4" pos="107.59" speed="13.79"/>
            </lane>
        </edge>
        <edge id="2/2to3/2">
            <lane id="2/2to3/2_0">
                <vehicle id="t3" pos="126.40" speed="13.17"/>
            </lane>
        </edge>
        <edge id="2/3to3/3">
            <lane id="2/3to3/3_0">
                <vehicle id="t6" pos="84.95" speed="13.21"/>
            </lane>
        </edge>
        <edge id="2/4to1/4">
            <lane id="2/4to1/4_0">
                <vehicle id="t5" pos="101.05" speed="13.41"/>
            </lane>
        </edge>
        <edge id="3/1to2/1">
            <lane id="3/1to2/1_0">
                <vehicle id="t8" pos="63.78" speed="13.61"/>
            </lane>
        </edge>
        <edge id="3/4to4/4">
            <lane id="3/4to4/4_0">
                <vehicle id="t15" pos="7.60" speed="0.00"/>
            </lane>
        </edge>
        <edge id="4/2to4/1">
            <lane id="4/2to4/1_0">
                <vehicle id="t12" pos="19.96" speed="6.25"/>
            </lane>
        </edge>
    </timestep>
    <timestep time="16.00">
        <edge id="0/1to0/2">
            <lane id="0/1to0/2_0">
                <vehicle id="t7" pos="91.73" speed="12.96"/>
            </lane>
        </edge>
        <edge id="0/3to0/4">
            <lane id="0/3to0/4_0">
                <vehicle id="t13" pos="16.72" speed="4.89"/>
            </lane>
        </edge>
        <edge id="1/0to0/0">
            <lane id="1/0to0/0_0">
                <vehicle id="t1" pos="174.37" speed="13.86"/>
            </lane>
        </edge>
        <edge id="1/1to1/2">
            <lane id="1/1to1/2_0">
                <vehicle id="t9" pos="56.72" speed="11.83"/>
            </lane>
        </edge>
        <edge id="1/2to0/2">
            <lane id="1/2to0/2_0">
                <vehicle id="t16" pos="7.60" speed="0.00"/>
            </lane>
        </edge>
        <edge id="1/3to0/3">
            <lane id="1/3to0/3_0">
                <vehicle id="t10" pos="50.10" speed="11.92"/>
            </lane>
        </edge>
        <edge id="1/3to1/4">
            <lane id="1/3to1/4_0">
                <vehicle id="t11" pos="37.13" speed="9.14"/>
            </lane>
        </edge>
        <edge id="2/0to1/0">
            <lane id="2/0to1/0_0">
                <vehicle id="t2" pos="157.02" speed="13.49"/>
            </lane>
        </edge>
        <edge id="2/1to2/2">
            <lane id="2/1to2/2_0">
                <vehicle id="t14" pos="13.56" speed="3.83"/>
            </lane>
        </edge>
        <edge id="2/2to1/2">
            <lane id="2/2to1/2_0">
                <vehicle id="t0" pos="175.71" speed="13.40"/>
            </lane>
        </edge>
        <edge id="2/2to2/3">
            <lane id="2/2to2/3_0">
                <vehicle id="t4" pos="120.47" speed="12.88"/>
            </lane>
        </edge>
        <edge id="2/2to3/2">
            <lane id="2/2to3/2_0">
                <vehicle id="t3" pos="139.60" speed="13.20"/>
            </lane>
        </edge>
        <edge id="2/3to3/3">
            <lane id="2/3to3/3_0">
                <vehicle id="t6" pos="98.69" speed="13.74"/>
            </lane>
        </edge>
        <edge id="2/4to1/4">
            <lane id="2/4to1/4_0">
                <vehicle id="t5" pos="114.07" speed="13.02"/>
            </lane>
        </edge>
        <edge id="3/1to2/1">
            <lane id="3/1to2/1_0">
                <vehicle id="t8" pos="77.32" speed="13.54"/>
            </lane>
        </edge>
        <edge id="3/4to4/4">
            <lane id="3/4to4/4_0">
                <vehicle id="t15" pos="9.46" speed="1.86"/>
            </lane>
        </edge>
        <edge id="4/2to4/1">
            <lane id="4/2to4/1_0">
                <vehicle id="t12" pos="28.27" speed="8.30"/>
            </lane>
        </edge>
    </timestep>
    <timestep time="17.00">
        <edge id="0/1to0/2">
            <lane id="0/1to0/2_0">
                <vehicle id="t7" pos="105.62" speed="13.88"/>
            </lane>
        </edge>
        <edge id="0/3to0/4">
            <lane id="0/3to0/4_0">
                <vehicle id="t13" pos="23.63" speed="6.90"/>
            </lane>
        </edge>
        <edge id="1/0to0/0">
            <lane id="1/0to0/0_0">
                <vehicle id="t1" pos="188.16" speed="13.79"/>
            </lane>
        </edge>
        <edge id="1/1to1/2">
            <lane id="1/1to1/2_0">
                <vehicle id="t9" pos="69.69" speed="12.98"/>
            </lane>
        </edge>
        <edge id="1/2to0/2">
            <lane id="1/2to0/2_0">
                <vehicle id="t16" pos="9.78" speed="2.18"/>
            </lane>
        </edge>
        <edge id="1/3to0/3">
            <lane id="1/3to0/3_0">
                <vehicle id="t10" pos="63.50" speed="13.40"/>
            </lane>
        </edge>
        <edge id="1/3to1/4">
            <lane id="1/3to1/4_0">
                <vehicle id="t11" pos="47.55" speed="10.42"/>
            </lane>
        </edge>
        <edge id="2/0to1/0">
            <lane id="2/0to1/0_0">
                <vehicle id="t2" pos="170.03" speed="13.01"/>
            </lane>
        </edge>
        <edge id="2/1to2/2">
            <lane id="2/1to2/2_0">
                <vehicle id="t14" pos="18.91" speed="5.34"/>
            </lane>
        </edge>
        <edge id="2/2to1/2">
            <lane id="2/2to1/2_0">
                <vehicle id="t0" pos="189.01" speed="13.30"/>
            </lane>
        </edge>
        <edge id="2/2to2/3">
            <lane id="2/2to2/3_0">
                <vehicle id="t4" pos="133.52" speed="13.04"/>
            </lane>
        </edge>
        <edge id="2/2to3/2">
            <lane id="2/2to3/2_0">
                <vehicle id="t3" pos="152.83" speed="13.23"/>
            </lane>
        </edge>
        <edge id="2/3to3/3">
            <lane id="2/3to3/3_0">
                <vehicle id="t6" pos="112.02" speed="13.33"/>
            </lane>
        </edge>
        <edge id="2/4to1/4">
            <lane id="2/4to1/4_0">
                <vehicle id="t5" pos="126.98" speed="12.92"/>
            </lane>
        </edge>
        <edge id="3/1to2/1">
            <lane id="3/1to2/1_0">