M 0.00000 0 (100.00, 200.00, 0.00), (120.00, 200.00), 0.00
M 0.00000 1 (389.00, 200.00, 0.00), (355.17, 200.02), 0.00
M 0.00000 2 (500.00, 200.00, 0.00), (405.88, 200.15), 0.00
r 50.001443737 _1_ RTR  --- 1 LAR 42 [0 ffffffff 0 800] ------- [0:254 -1:254 32 0] LAR [R N] src[0 (100.001,200.000)] to[1 (0.000,0.000) s=0.000 t=0.000000] h=1 last[-1 (100.001,200.000)] data=0 t=50.000000
r 50.001443737 _1_ AGT  --- 1 LAR 42 [0 ffffffff 0 800] ------- [0:254 -1:254 31 0] LAR [R N] src[0 (100.001,200.000)] to[1 (0.000,0.000) s=0.000 t=0.000000] h=1 last[-1 (100.001,200.000)] data=0 t=50.000000
r 50.006400150 _0_ AGT  --- 2 LAR 46 [13a 0 1 800] ------- [1:254 0:254 32 0] LAR [A N] src[1 (100.001,200.000)] to[0 (388.999,200.000) s=0.000 t=50.001444] h=2 last[0 (388.999,200.000)] data=0 t=50.001444
r 50.012451040 _1_ AGT  --- 0 LAR 548 [13a 1 0 800] ------- [0:254 1:254 32 1] LAR [D B] src[0 (100.001,200.000)] to[1 (388.999,200.000) s=0.000 t=50.001444] h=2 last[16777216 (100.001,200.000)] data=512 t=50.000000
r 50.256001988 _1_ AGT  --- 3 LAR 548 [13a 1 0 800] ------- [0:254 1:254 32 1] LAR [D B] src[0 (100.001,200.000)] to[1 (388.999,200.000) s=0.000 t=50.001444] h=2 last[16777216 (100.001,200.000)] data=512 t=50.250000
r 50.505947360 _1_ AGT  --- 4 LAR 548 [13a 1 0 800] ------- [0:254 1:254 32 1] LAR [D B] src[0 (100.001,200.000)] to[1 (388.999,200.000) s=0.000 t=50.001444] h=2 last[16777216 (100.001,200.000)] data=512 t=50.500000
r 50.756258220 _1_ AGT  --- 5 LAR 548 [13a 1 0 800] ------- [0:254 1:254 32 1] LAR [D B] src[0 (100.001,200.000)] to[1 (388.999,200.000) s=0.000 t=50.001444] h=2 last[16777216 (100.001,200.000)] data=512 t=50.750000
r 51.006000682 _1_ AGT  --- 6 LAR 548 [13a 1 0 800] ------- [0:254 1:254 32 1] LAR [D B] src[0 (100.001,200.000)] to[1 (388.999,200.000) s=0.000 t=50.001444] h=2 last[16777216 (100.001,200.000)] data=512 t=51.000000
r 51.255841986 _1_ AGT  --- 7 LAR 548 [13a 1 0 800] ------- [0:254 1:254 32 1] LAR [D B] src[0 (100.001,200.000)] to[1 (388.999,200.000) s=0.000 t=50.001444] h=2 last[16777216 (100.001,200.000)] data=512 t=51.250000
r 51.506031006 _1_ AGT  --- 8 LAR 548 [13a 1 0 800] ------- [0:254 1:254 32 1] LAR [D B] src[0 (100.001,200.000)] to[1 (388.999,200.000) s=0.000 t=50.001444] h=2 last[16777216 (100.001,200.000)] data=512 t=51.500000
r 51.755862306 _1_ AGT  --- 9 LAR 548 [13a 1 0 800] ------- [0:254 1:254 32 1] LAR [D B] src[0 (100.001,200.000)] to[1 (388.999,200.000) s=0.000 t=50.001444] h=2 last[16777216 (100.001,200.000)] data=512 t=51.750000
r 52.005712246 _1_ AGT  --- 10 LAR 548 [13a 1 0 800] ------- [0:254 1:254 32 1] LAR [D B] src[0 (100.001,200.000)] to[1 (388.999,200.000) s=0.000 t=50.001444] h=2 last[16777216 (100.001,200.000)] data=512 t=52.000000
r 52.256090209 _1_ AGT  --- 11 LAR 548 [13a 1 0 800] ------- [0:254 1:254 32 1] LAR [D B] src[0 (100.001,200.000)] to[1 (388.999,200.000) s=0.000 t=50.001444] h=2 last[16777216 (100.001,200.000)] data=512 t=52.250000
r 52.506229345 _1_ AGT  --- 12 LAR 548 [13a 1 0 800] ------- [0:254 1:254 32 1] LAR [D B] src[0 (100.001,200.000)] to[1 (388.999,200.000) s=0.000 t=50.001444] h=2 last[16777216 (100.001,200.000)] data=512 t=52.500000
r 52.756184808 _1_ AGT  --- 13 LAR 548 [13a 1 0 800] ------- [0:254 1:254 32 1] LAR [D B] src[0 (100.001,200.000)] to[1 (388.999,200.000) s=0.000 t=50.001444] h=2 last[16777216 (100.001,200.000)] data=512 t=52.750000
r 53.005689652 _1_ AGT  --- 14 LAR 548 [13a 1 0 800] ------- [0:254 1:254 32 1] LAR [D B] src[0 (100.001,200.000)] to[1 (388.999,200.000) s=0.000 t=50.001444] h=2 last[16777216 (100.001,200.000)] data=512 t=53.000000
r 53.256027605 _1_ AGT  --- 15 LAR 548 [13a 1 0 800] ------- [0:254 1:254 32 1] LAR [D B] src[0 (100.001,200.000)] to[1 (388.999,200.000) s=0.000 t=50.001444] h=2 last[16777216 (100.001,200.000)] data=512 t=53.250000
r 53.505768340 _1_ AGT  --- 16 LAR 548 [13a 1 0 800] ------- [0:254 1:254 32 1] LAR [D B] src[0 (100.001,200.000)] to[1 (388.999,200.000) s=0.000 t=50.001444] h=2 last[16777216 (100.001,200.000)] data=512 t=53.500000
r 53.755921549 _1_ AGT  --- 17 LAR 548 [13a 1 0 800] ------- [0:254 1:254 32 1] LAR [D B] src[0 (100.001,200.000)] to[1 (388.999,200.000) s=0.000 t=50.001444] h=2 last[16777216 (100.001,200.000)] data=512 t=53.750000
r 54.006169522 _1_ AGT  --- 18 LAR 548 [13a 1 0 800] ------- [0:254 1:254 32 1] LAR [D B] src[0 (100.001,200.000)] to[1 (388.999,200.000) s=0.000 t=50.001444] h=2 last[16777216 (100.001,200.000)] data=512 t=54.000000
r 54.255852295 _1_ AGT  --- 19 LAR 548 [13a 1 0 800] ------- [0:254 1:254 32 1] LAR [D B] src[0 (100.001,200.000)] to[1 (388.999,200.000) s=0.000 t=50.001444] h=2 last[16777216 (100.001,200.000)] data=512 t=54.250000
r 54.505779734 _1_ AGT  --- 20 LAR 548 [13a 1 0 800] ------- [0:254 1:254 32 1] LAR [D B] src[0 (100.001,200.000)] to[1 (388.999,200.000) s=0.000 t=50.001444] h=2 last[16777216 (100.001,200.000)] data=512 t=54.500000
r 54.756035774 _1_ AGT  --- 21 LAR 548 [13a 1 0 800] ------- [0:254 1:254 32 1] LAR [D B] src[0 (100.001,200.000)] to[1 (388.999,200.000) s=0.000 t=50.001444] h=2 last[16777216 (100.001,200.000)] data=512 t=54.750000
r 55.005914070 _1_ AGT  --- 22 LAR 548 [13a 1 0 800] ------- [0:254 1:254 32 1] LAR [D B] src[0 (100.001,200.000)] to[1 (388.999,200.000) s=0.000 t=50.001444] h=2 last[16777216 (100.001,200.000)] data=512 t=55.000000
r 55.255978473 _1_ AGT  --- 23 LAR 548 [13a 1 0 800] ------- [0:254 1:254 32 1] LAR [D B] src[0 (100.001,200.000)] to[1 (388.999,200.000) s=0.000 t=50.001444] h=2 last[16777216 (100.001,200.000)] data=512 t=55.250000
r 55.505648077 _1_ AGT  --- 24 LAR 548 [13a 1 0 800] ------- [0:254 1:254 32 1] LAR [D B] src[0 (100.001,200.000)] to[1 (388.999,200.000) s=0.000 t=50.001444] h=2 last[16777216 (100.001,200.000)] data=512 t=55.500000
r 55.755992713 _1_ AGT  --- 25 LAR 548 [13a 1 0 800] ------- [0:254 1:254 32 1] LAR [D B] src[0 (100.001,200.000)] to[1 (388.999,200.000) s=0.000 t=50.001444] h=2 last[16777216 (100.001,200.000)] data=512 t=55.750000
r 56.005915414 _1_ AGT  --- 26 LAR 548 [13a 1 0 800] ------- [0:254 1:254 32 1] LAR [D B] src[0 (100.001,200.000)] to[1 (388.999,200.000) s=0.000 t=50.001444] h=2 last[16777216 (100.001,200.000)] data=512 t=56.000000
r 56.255928367 _1_ AGT  --- 27 LAR 548 [13a 1 0 800] ------- [0:254 1:254 32 1] LAR [D B] src[0 (100.001,200.000)] to[1 (388.999,200.000) s=0.000 t=50.001444] h=2 last[16777216 (100.001,200.000)] data=512 t=56.250000
r 56.505869127 _1_ AGT  --- 28 LAR 548 [13a 1 0 800] ------- [0:254 1:254 32 1] LAR [D B] src[0 (100.001,200.000)] to[1 (388.999,200.000) s=0.000 t=50.001444] h=2 last[16777216 (100.001,200.000)] data=512 t=56.500000
r 56.755938299 _1_ AGT  --- 29 LAR 548 [13a 1 0 800] ------- [0:254 1:254 32 1] LAR [D B] src[0 (100.001,200.000)] to[1 (388.999,200.000) s=0.000 t=50.001444] h=2 last[16777216 (100.001,200.000)] data=512 t=56.750000
r 57.006117861 _1_ AGT  --- 30 LAR 548 [13a 1 0 800] ------- [0:254 1:254 32 1] LAR [D B] src[0 (100.001,200.000)] to[1 (388.999,200.000) s=0.000 t=50.001444] h=2 last[16777216 (100.001,200.000)] data=512 t=57.000000
r 57.255831901 _1_ AGT  --- 31 LAR 548 [13a 1 0 800] ------- [0:254 1:254 32 1] LAR [D B] src[0 (100.001,200.000)] to[1 (388.999,200.000) s=0.000 t=50.001444] h=2 last[16777216 (100.001,200.000)] data=512 t=57.250000
r 57.505708969 _1_ AGT  --- 32 LAR 548 [13a 1 0 800] ------- [0:254 1:254 32 1] LAR [D B] src[0 (100.001,200.000)] to[1 (388.999,200.000) s=0.000 t=50.001444] h=2 last[16777216 (100.001,200.000)] data=512 t=57.500000
r 57.755785204 _1_ AGT  --- 33 LAR 548 [13a 1 0 800] ------- [0:254 1:254 32 1] LAR [D B] src[0 (100.001,200.000)] to[1 (388.999,200.000) s=0.000 t=50.001444] h=2 last[16777216 (100.001,200.000)] data=512 t=57.750000
r 58.005726999 _1_ AGT  --- 34 LAR 548 [13a 1 0 800] ------- [0:254 1:254 32 1] LAR [D B] src[0 (100.001,200.000)] to[1 (388.999,200.000) s=0.000 t=50.001444] h=2 last[16777216 (100.001,200.000)] data=512 t=58.000000
r 58.255909439 _1_ AGT  --- 35 LAR 548 [13a 1 0 800] ------- [0:254 1:254 32 1] LAR [D B] src[0 (100.001,200.000)] to[1 (388.999,200.000) s=0.000 t=50.001444] h=2 last[16777216 (100.001,200.000)] data=512 t=58.250000
r 58.505716534 _1_ AGT  --- 36 LAR 548 [13a 1 0 800] ------- [0:254 1:254 32 1] LAR [D B] src[0 (100.001,200.000)] to[1 (388.999,200.000) s=0.000 t=50.001444] h=2 last[16777216 (100.001,200.000)] data=512 t=58.500000
r 58.756240792 _1_ AGT  --- 37 LAR 548 [13a 1 0 800] ------- [0:254 1:254 32 1] LAR [D B] src[0 (100.001,200.000)] to[1 (388.999,200.000) s=0.000 t=50.001444] h=2 last[16777216 (100.001,200.000)] data=512 t=58.750000
r 59.005764535 _1_ AGT  --- 38 LAR 548 [13a 1 0 800] ------- [0:254 1:254 32 1] LAR [D B] src[0 (100.001,200.000)] to[1 (388.999,200.000) s=0.000 t=50.001444] h=2 last[16777216 (100.001,200.000)] data=512 t=59.000000
r 59.255840650 _1_ AGT  --- 39 LAR 548 [13a 1 0 800] ------- [0:254 1:254 32 1] LAR [D B] src[0 (100.001,200.000)] to[1 (388.999,200.000) s=0.000 t=50.001444] h=2 last[16777216 (100.001,200.000)] data=512 t=59.250000
r 59.506116207 _1_ AGT  --- 40 LAR 548 [13a 1 0 800] ------- [0:254 1:254 32 1] LAR [D B] src[0 (100.001,200.000)] to[1 (388.999,200.000) s=0.000 t=50.001444] h=2 last[16777216 (100.001,200.000)] data=512 t=59.500000
r 59.755969891 _1_ AGT  --- 41 LAR 548 [13a 1 0 800] ------- [0:254 1:254 32 1] LAR [D B] src[0 (100.001,200.000)] to[1 (388.999,200.000) s=0.000 t=50.001444] h=2 last[16777216 (100.001,200.000)] data=512 t=59.750000
r 60.005943970 _1_ AGT  --- 42 LAR 548 [13a 1 0 800] ------- [0:254 1:254 32 1] LAR [D B] src[0 (100.001,200.000)] to[1 (388.999,200.000) s=0.000 t=50.001444] h=2 last[16777216 (100.001,200.000)] data=512 t=60.000000
r 60.255738663 _1_ AGT  --- 43 LAR 548 [13a 1 0 800] ------- [0:254 1:254 32 1] LAR [D B] src[0 (100.001,200.000)] to[1 (388.999,200.000) s=0.000 t=50.001444] h=2 last[16777216 (100.001,200.000)] data=512 t=60.250000
r 60.505907810 _1_ AGT  --- 44 LAR 548 [13a 1 0 800] ------- [0:254 1:254 32 1] LAR [D B] src[0 (100.001,200.000)] to[1 (388.999,200.000) s=0.000 t=50.001444] h=2 last[16777216 (100.001,200.000)] data=512 t=60.500000
r 60.755826732 _1_ AGT  --- 45 LAR 548 [13a 1 0 800] ------- [0:254 1:254 32 1] LAR [D B] src[0 (100.001,200.000)] to[1 (388.999,200.000) s=0.000 t=50.001444] h=2 last[16777216 (100.001,200.000)] data=512 t=60.750000
r 61.006039377 _1_ AGT  --- 46 LAR 548 [13a 1 0 800] ------- [0:254 1:254 32 1] LAR [D B] src[0 (100.001,200.000)] to[1 (388.999,200.000) s=0.000 t=50.001444] h=2 last[16777216 (100.001,200.000)] data=512 t=61.000000
r 61.255809260 _1_ AGT  --- 47 LAR 548 [13a 1 0 800] ------- [0:254 1:254 32 1] LAR [D B] src[0 (100.001,200.000)] to[1 (388.999,200.000) s=0.000 t=50.001444] h=2 last[16777216 (100.001,200.000)] data=512 t=61.250000
r 61.505661391 _1_ AGT  --- 48 LAR 548 [13a 1 0 800] ------- [0:254 1:254 32 1] LAR [D B] src[0 (100.001,200.000)] to[1 (388.999,200.000) s=0.000 t=50.001444] h=2 last[16777216 (100.001,200.000)] data=512 t=61.500000
r 61.756022010 _1_ AGT  --- 49 LAR 548 [13a 1 0 800] ------- [0:254 1:254 32 1] LAR [D B] src[0 (100.001,200.000)] to[1 (388.999,200.000) s=0.000 t=50.001444] h=2 last[16777216 (100.001,200.000)] data=512 t=61.750000
r 62.006094665 _1_ AGT  --- 50 LAR 548 [13a 1 0 800] ------- [0:254 1:254 32 1] LAR [D B] src[0 (100.001,200.000)] to[1 (388.999,200.000) s=0.000 t=50.001444] h=2 last[16777216 (100.001,200.000)] data=512 t=62.000000
r 62.255974235 _1_ AGT  --- 51 LAR 548 [13a 1 0 800] ------- [0:254 1:254 32 1] LAR [D B] src[0 (100.001,200.000)] to[1 (388.999,200.000) s=0.000 t=50.001444] h=2 last[16777216 (100.001,200.000)] data=512 t=62.250000
r 62.505650894 _1_ AGT  --- 52 LAR 548 [13a 1 0 800] ------- [0:254 1:254 32 1] LAR [D B] src[0 (100.001,200.000)] to[1 (388.999,200.000) s=0.000 t=50.001444] h=2 last[16777216 (100.001,200.000)] data=512 t=62.500000
r 62.755781844 _1_ AGT  --- 53 LAR 548 [13a 1 0 800] ------- [0:254 1:254 32 1] LAR [D B] src[0 (100.001,200.000)] to[1 (388.999,200.000) s=0.000 t=50.001444] h=2 last[16777216 (100.001,200.000)] data=512 t=62.750000
r 63.005785818 _1_ AGT  --- 54 LAR 548 [13a 1 0 800] ------- [0:254 1:254 32 1] LAR [D B] src[0 (100.001,200.000)] to[1 (388.999,200.000) s=0.000 t=50.001444] h=2 last[16777216 (100.001,200.000)] data=512 t=63.000000
r 63.256252081 _1_ AGT  --- 55 LAR 548 [13a 1 0 800] ------- [0:254 1:254 32 1] LAR [D B] src[0 (100.001,200.000)] to[1 (388.999,200.000) s=0.000 t=50.001444] h=2 last[16777216 (100.001,200.000)] data=512 t=63.250000
r 63.505647667 _1_ AGT  --- 56 LAR 548 [13a 1 0 800] ------- [0:254 1:254 32 1] LAR [D B] src[0 (100.001,200.000)] to[1 (388.999,200.000) s=0.000 t=50.001444] h=2 last[16777216 (100.001,200.000)] data=512 t=63.500000
r 63.755754342 _1_ AGT  --- 57 LAR 548 [13a 1 0 800] ------- [0:254 1:254 32 1] LAR [D B] src[0 (100.001,200.000)] to[1 (388.999,200.000) s=0.000 t=50.001444] h=2 last[16777216 (100.001,200.000)] data=512 t=63.750000
r 64.005673558 _1_ AGT  --- 58 LAR 548 [13a 1 0 800] ------- [0:254 1:254 32 1] LAR [D B] src[0 (100.001,200.000)] to[1 (388.999,200.000) s=0.000 t=50.001444] h=2 last[16777216 (100.001,200.000)] data=512 t=64.000000
r 64.256009904 _1_ AGT  --- 59 LAR 548 [13a 1 0 800] ------- [0:254 1:254 32 1] LAR [D B] src[0 (100.001,200.000)] to[1 (388.999,200.000) s=0.000 t=50.001444] h=2 last[16777216 (100.001,200.000)] data=512 t=64.250000
r 64.506105751 _1_ AGT  --- 60 LAR 548 [13a 1 0 800] ------- [0:254 1:254 32 1] LAR [D B] src[0 (100.001,200.000)] to[1 (388.999,200.000) s=0.000 t=50.001444] h=2 last[16777216 (100.001,200.000)] data=512 t=64.500000
r 64.755984529 _1_ AGT  --- 61 LAR 548 [13a 1 0 800] ------- [0:254 1:254 32 1] LAR [D B] src[0 (100.001,200.000)] to[1 (388.999,200.000) s=0.000 t=50.001444] h=2 last[16777216 (100.001,200.000)] data=512 t=64.750000
r 65.006254915 _1_ AGT  --- 62 LAR 548 [13a 1 0 800] ------- [0:254 1:254 32 1] LAR [D B] src[0 (100.001,200.000)] to[1 (388.999,200.000) s=0.000 t=50.001444] h=2 last[16777216 (100.001,200.000)] data=512 t=65.000000
r 65.255807830 _1_ AGT  --- 63 LAR 548 [13a 1 0 800] ------- [0:254 1:254 32 1] LAR [D B] src[0 (100.001,200.000)] to[1 (388.999,200.000) s=0.000 t=50.001444] h=2 last[16777216 (100.001,200.000)] data=512 t=65.250000
r 65.505702843 _1_ AGT  --- 64 LAR 548 [13a 1 0 800] ------- [0:254 1:254 32 1] LAR [D B] src[0 (100.001,200.000)] to[1 (388.999,200.000) s=0.000 t=50.001444] h=2 last[16777216 (100.001,200.000)] data=512 t=65.500000
r 65.755715025 _1_ AGT  --- 65 LAR 548 [13a 1 0 800] ------- [0:254 1:254 32 1] LAR [D B] src[0 (100.001,200.000)] to[1 (388.999,200.000) s=0.000 t=50.001444] h=2 last[16777216 (100.001,200.000)] data=512 t=65.750000
r 66.006250379 _1_ AGT  --- 66 LAR 548 [13a 1 0 800] ------- [0:254 1:254 32 1] LAR [D B] src[0 (100.001,200.000)] to[1 (388.999,200.000) s=0.000 t=50.001444] h=2 last[16777216 (100.001,200.000)] data=512 t=66.000000
r 66.256212488 _1_ AGT  --- 67 LAR 548 [13a 1 0 800] ------- [0:254 1:254 32 1] LAR [D B] src[0 (100.001,200.000)] to[1 (388.999,200.000) s=0.000 t=50.001444] h=2 last[16777216 (100.001,200.000)] data=512 t=66.250000
r 66.506148927 _1_ AGT  --- 68 LAR 548 [13a 1 0 800] ------- [0:254 1:254 32 1] LAR [D B] src[0 (100.001,200.000)] to[1 (388.999,200.000) s=0.000 t=50.001444] h=2 last[16777216 (100.001,200.000)] data=512 t=66.500000
r 66.755908024 _1_ AGT  --- 69 LAR 548 [13a 1 0 800] ------- [0:254 1:254 32 1] LAR [D B] src[0 (100.001,200.000)] to[1 (388.999,200.000) s=0.000 t=50.001444] h=2 last[16777216 (100.001,200.000)] data=512 t=66.750000
r 67.005826248 _1_ AGT  --- 70 LAR 548 [13a 1 0 800] ------- [0:254 1:254 32 1] LAR [D B] src[0 (100.001,200.000)] to[1 (388.999,200.000) s=0.000 t=50.001444] h=2 last[16777216 (100.001,200.000)] data=512 t=67.000000
r 67.255678244 _1_ AGT  --- 71 LAR 548 [13a 1 0 800] ------- [0:254 1:254 32 1] LAR [D B] src[0 (100.001,200.000)] to[1 (388.999,200.000) s=0.000 t=50.001444] h=2 last[16777216 (100.001,200.000)] data=512 t=67.250000
r 67.506211025 _1_ AGT  --- 72 LAR 548 [13a 1 0 800] ------- [0:254 1:254 32 1] LAR [D B] src[0 (100.001,200.000)] to[1 (388.999,200.000) s=0.000 t=50.001444] h=2 last[16777216 (100.001,200.000)] data=512 t=67.500000
r 67.755643328 _1_ AGT  --- 73 LAR 548 [13a 1 0 800] ------- [0:254 1:254 32 1] LAR [D B] src[0 (100.001,200.000)] to[1 (388.999,200.000) s=0.000 t=50.001444] h=2 last[16777216 (100.001,200.000)] data=512 t=67.750000
r 68.006010017 _1_ AGT  --- 74 LAR 548 [13a 1 0 800] ------- [0:254 1:254 32 1] LAR [D B] src[0 (100.001,200.000)] to[1 (388.999,200.000) s=0.000 t=50.001444] h=2 last[16777216 (100.001,200.000)] data=512 t=68.000000
r 68.256171945 _1_ AGT  --- 75 LAR 548 [13a 1 0 800] ------- [0:254 1:254 32 1] LAR [D B] src[0 (100.001,200.000)] to[1 (388.999,200.000) s=0.000 t=50.001444] h=2 last[16777216 (100.001,200.000)] data=512 t=68.250000
r 68.505823169 _1_ AGT  --- 76 LAR 548 [13a 1 0 800] ------- [0:254 1:254 32 1] LAR [D B] src[0 (100.001,200.000)] to[1 (388.999,200.000) s=0.000 t=50.001444] h=2 last[16777216 (100.001,200.000)] data=512 t=68.500000
r 68.756202504 _1_ AGT  --- 77 LAR 548 [13a 1 0 800] ------- [0:254 1:254 32 1] LAR [D B] src[0 (100.001,200.000)] to[1 (388.999,200.000) s=0.000 t=50.001444] h=2 last[16777216 (100.001,200.000)] data=512 t=68.750000
r 69.006174314 _1_ AGT  --- 78 LAR 548 [13a 1 0 800] ------- [0:254 1:254 32 1] LAR [D B] src[0 (100.001,200.000)] to[1 (388.999,200.000) s=0.000 t=50.001444] h=2 last[16777216 (100.001,200.000)] data=512 t=69.000000
r 69.255717671 _1_ AGT  --- 79 LAR 548 [13a 1 0 800] ------- [0:254 1:254 32 1] LAR [D B] src[0 (100.001,200.000)] to[1 (388.999,200.000) s=0.000 t=50.001444] h=2 last[16777216 (100.001,200.000)] data=512 t=69.250000
r 69.506257624 _1_ AGT  --- 80 LAR 548 [13a 1 0 800] ------- [0:254 1:254 32 1] LAR [D B] src[0 (100.001,200.000)] to[1 (388.999,200.000) s=0.000 t=50.001444] h=2 last[16777216 (100.001,200.000)] data=512 t=69.500000
r 69.755982089 _1_ AGT  --- 81 LAR 548 [13a 1 0 800] ------- [0:254 1:254 32 1] LAR [D B] src[0 (100.001,200.000)] to[1 (388.999,200.000) s=0.000 t=50.001444] h=2 last[16777216 (100.001,200.000)] data=512 t=69.750000
r 70.006125016 _1_ AGT  --- 82 LAR 548 [13a 1 0 800] ------- [0:254 1:254 32 1] LAR [D B] src[0 (100.001,200.000)] to[1 (388.999,200.000) s=0.000 t=50.001444] h=2 last[16777216 (100.001,200.000)] data=512 t=70.000000
r 70.256221628 _1_ AGT  --- 83 LAR 548 [13a 1 0 800] ------- [0:254 1:254 32 1] LAR [D B] src[0 (100.001,200.000)] to[1 (388.999,200.000) s=0.000 t=50.001444] h=2 last[16777216 (100.001,200.000)] data=512 t=70.250000
r 70.505777043 _1_ AGT  --- 84 LAR 548 [13a 1 0 800] ------- [0:254 1:254 32 1] LAR [D B] src[0 (100.001,200.000)] to[1 (388.999,200.000) s=0.000 t=50.001444] h=2 last[16777216 (100.001,200.000)] data=512 t=70.500000
r 70.755643944 _1_ AGT  --- 85 LAR 548 [13a 1 0 800] ------- [0:254 1:254 32 1] LAR [D B] src[0 (100.001,200.000)] to[1 (388.999,200.000) s=0.000 t=50.001444] h=2 last[16777216 (100.001,200.000)] data=512 t=70.750000
r 71.006046818 _1_ AGT  --- 86 LAR 548 [13a 1 0 800] ------- [0:254 1:254 32 1] LAR [D B] src[0 (100.001,200.000)] to[1 (388.999,200.000) s=0.000 t=50.001444] h=2 last[16777216 (100.001,200.000)] data=512 t=71.000000
r 71.255757821 _1_ AGT  --- 87 LAR 548 [13a 1 0 800] ------- [0:254 1:254 32 1] LAR [D B] src[0 (100.001,200.000)] to[1 (388.999,200.000) s=0.000 t=50.001444] h=2 last[16777216 (100.001,200.000)] data=512 t=71.250000
r 71.506111396 _1_ AGT  --- 88 LAR 548 [13a 1 0 800] ------- [0:254 1:254 32 1] LAR [D B] src[0 (100.001,200.000)] to[1 (388.999,200.000) s=0.000 t=50.001444] h=2 last[16777216 (100.001,200.000)] data=512 t=71.500000
r 71.756113486 _1_ AGT  --- 89 LAR 548 [13a 1 0 800] ------- [0:254 1:254 32 1] LAR [D B] src[0 (100.001,200.000)] to[1 (388.999,200.000) s=0.000 t=50.001444] h=2 last[16777216 (100.001,200.000)] data=512 t=71.750000
r 72.005700835 _1_ AGT  --- 90 LAR 548 [13a 1 0 800] ------- [0:254 1:254 32 1] LAR [D B] src[0 (100.001,200.000)] to[1 (388.999,200.000) s=0.000 t=50.001444] h=2 last[16777216 (100.001,200.000)] data=512 t=72.000000
r 72.256270257 _1_ AGT  --- 91 LAR 548 [13a 1 0 800] ------- [0:254 1:254 32 1] LAR [D B] src[0 (100.001,200.000)] to[1 (388.999,200.000) s=0.000 t=50.001444] h=2 last[16777216 (100.001,200.000)] data=512 t=72.250000
r 72.506031125 _1_ AGT  --- 92 LAR 548 [13a 1 0 800] ------- [0:254 1:254 32 1] LAR [D B] src[0 (100.001,200.000)] to[1 (388.999,200.000) s=0.000 t=50.001444] h=2 last[16777216 (100.001,200.000)] data=512 t=72.500000
r 72.756048861 _1_ AGT  --- 93 LAR 548 [13a 1 0 800] ------- [0:254 1:254 32 1] LAR [D B] src[0 (100.001,200.000)] to[1 (388.999,200.000) s=0.000 t=50.001444] h=2 last[16777216 (100.001,200.000)] data=512 t=72.750000
r 73.005871197 _1_ AGT  --- 94 LAR 548 [13a 1 0 800] ------- [0:254 1:254 32 1] LAR [D B] src[0 (100.001,200.000)] to[1 (388.999,200.000) s=0.000 t=50.001444] h=2 last[16777216 (100.001,200.000)] data=512 t=73.000000
r 73.255707079 _1_ AGT  --- 95 LAR 548 [13a 1 0 800] ------- [0:254 1:254 32 1] LAR [D B] src[0 (100.001,200.000)] to[1 (388.999,200.000) s=0.000 t=50.001444] h=2 last[16777216 (100.001,200.000)] data=512 t=73.250000
r 73.506136996 _1_ AGT  --- 96 LAR 548 [13a 1 0 800] ------- [0:254 1:254 32 1] LAR [D B] src[0 (100.001,200.000)] to[1 (388.999,200.000) s=0.000 t=50.001444] h=2 last[16777216 (100.001,200.000)] data=512 t=73.500000
r 73.756234685 _1_ AGT  --- 97 LAR 548 [13a 1 0 800] ------- [0:254 1:254 32 1] LAR [D B] src[0 (100.001,200.000)] to[1 (388.999,200.000) s=0.000 t=50.001444] h=2 last[16777216 (100.001,200.000)] data=512 t=73.750000
r 74.005952677 _1_ AGT  --- 98 LAR 548 [13a 1 0 800] ------- [0:254 1:254 32 1] LAR [D B] src[0 (100.001,200.000)] to[1 (388.999,200.000) s=0.000 t=50.001444] h=2 last[16777216 (100.001,200.000)] data=512 t=74.000000
r 74.255939032 _1_ AGT  --- 99 LAR 548 [13a 1 0 800] ------- [0:254 1:254 32 1] LAR [D B] src[0 (100.001,200.000)] to[1 (388.999,200.000) s=0.000 t=50.001444] h=2 last[16777216 (100.001,200.000)] data=512 t=74.250000
r 74.506015819 _1_ AGT  --- 100 LAR 548 [13a 1 0 800] ------- [0:254 1:254 32 1] LAR [D B] src[0 (100.001,200.000)] to[1 (388.999,200.000) s=0.000 t=50.001444] h=2 last[16777216 (100.001,200.000)] data=512 t=74.500000
r 74.756012035 _1_ AGT  --- 101 LAR 548 [13a 1 0 800] ------- [0:254 1:254 32 1] LAR [D B] src[0 (100.001,200.000)] to[1 (388.999,200.000) s=0.000 t=50.001444] h=2 last[16777216 (100.001,200.000)] data=512 t=74.750000
r 75.005730386 _1_ AGT  --- 102 LAR 548 [13a 1 0 800] ------- [0:254 1:254 32 1] LAR [D B] src[0 (100.001,200.000)] to[1 (388.999,200.000) s=0.000 t=50.001444] h=2 last[16777216 (100.001,200.000)] data=512 t=75.000000
r 75.256119954 _1_ AGT  --- 103 LAR 548 [13a 1 0 800] ------- [0:254 1:254 32 1] LAR [D B] src[0 (100.001,200.000)] to[1 (388.999,200.000) s=0.000 t=50.001444] h=2 last[16777216 (100.001,200.000)] data=512 t=75.250000
r 75.505948472 _1_ AGT  --- 104 LAR 548 [13a 1 0 800] ------- [0:254 1:254 32 1] LAR [D B] src[0 (100.001,200.000)] to[1 (388.999,200.000) s=0.000 t=50.001444] h=2 last[16777216 (100.001,200.000)] data=512 t=75.500000
r 75.756073513 _1_ AGT  --- 105 LAR 548 [13a 1 0 800] ------- [0:254 1:254 32 1] LAR [D B] src[0 (100.001,200.000)] to[1 (388.999,200.000) s=0.000 t=50.001444] h=2 last[16777216 (100.001,200.000)] data=512 t=75.750000
r 76.005785009 _1_ AGT  --- 106 LAR 548 [13a 1 0 800] ------- [0:254 1:254 32 1] LAR [D B] src[0 (100.001,200.000)] to[1 (388.999,200.000) s=0.000 t=50.001444] h=2 last[16777216 (100.001,200.000)] data=512 t=76.000000
r 76.255744752 _1_ AGT  --- 107 LAR 548 [13a 1 0 800] ------- [0:254 1:254 32 1] LAR [D B] src[0 (100.001,200.000)] to[1 (388.999,200.000) s=0.000 t=50.001444] h=2 last[16777216 (100.001,200.000)] data=512 t=76.250000
r 76.506209127 _1_ AGT  --- 108 LAR 548 [13a 1 0 800] ------- [0:254 1:254 32 1] LAR [D B] src[0 (100.001,200.000)] to[1 (388.999,200.000) s=0.000 t=50.001444] h=2 last[16777216 (100.001,200.000)] data=512 t=76.500000
r 76.756132433 _1_ AGT  --- 109 LAR 548 [13a 1 0 800] ------- [0:254 1:254 32 1] LAR [D B] src[0 (100.001,200.000)] to[1 (388.999,200.000) s=0.000 t=50.001444] h=2 last[16777216 (100.001,200.000)] data=512 t=76.750000
r 77.006215532 _1_ AGT  --- 110 LAR 548 [13a 1 0 800] ------- [0:254 1:254 32 1] LAR [D B] src[0 (100.001,200.000)] to[1 (388.999,200.000) s=0.000 t=50.001444] h=2 last[16777216 (100.001,200.000)] data=512 t=77.000000
r 77.255679860 _1_ AGT  --- 111 LAR 548 [13a 1 0 800] ------- [0:254 1:254 32 1] LAR [D B] src[0 (100.001,200.000)] to[1 (388.999,200.000) s=0.000 t=50.001444] h=2 last[16777216 (100.001,200.000)] data=512 t=77.250000
r 77.505887632 _1_ AGT  --- 112 LAR 548 [13a 1 0 800] ------- [0:254 1:254 32 1] LAR [D B] src[0 (100.001,200.000)] to[1 (388.999,200.000) s=0.000 t=50.001444] h=2 last[16777216 (100.001,200.000)] data=512 t=77.500000
r 77.756233658 _1_ AGT  --- 113 LAR 548 [13a 1 0 800] ------- [0:254 1:254 32 1] LAR [D B] src[0 (100.001,200.000)] to[1 (388.999,200.000) s=0.000 t=50.001444] h=2 last[16777216 (100.001,200.000)] data=512 t=77.750000
r 78.005774598 _1_ AGT  --- 114 LAR 548 [13a 1 0 800] ------- [0:254 1:254 32 1] LAR [D B] src[0 (100.001,200.000)] to[1 (388.999,200.000) s=0.000 t=50.001444] h=2 last[16777216 (100.001,200.000)] data=512 t=78.000000
r 78.256117786 _1_ AGT  --- 115 LAR 548 [13a 1 0 800] ------- [0:254 1:254 32 1] LAR [D B] src[0 (100.001,200.000)] to[1 (388.999,200.000) s=0.000 t=50.001444] h=2 last[16777216 (100.001,200.000)] data=512 t=78.250000
r 78.505790712 _1_ AGT  --- 116 LAR 548 [13a 1 0 800] ------- [0:254 1:254 32 1] LAR [D B] src[0 (100.001,200.000)] to[1 (388.999,200.000) s=0.000 t=50.001444] h=2 last[16777216 (100.001,200.000)] data=512 t=78.500000
r 78.756114526 _1_ AGT  --- 117 LAR 548 [13a 1 0 800] ------- [0:254 1:254 32 1] LAR [D B] src[0 (100.001,200.000)] to[1 (388.999,200.000) s=0.000 t=50.001444] h=2 last[16777216 (100.001,200.000)] data=512 t=78.750000
r 79.005908716 _1_ AGT  --- 118 LAR 548 [13a 1 0 800] ------- [0:254 1:254 32 1] LAR [D B] src[0 (100.001,200.000)] to[1 (388.999,200.000) s=0.000 t=50.001444] h=2 last[16777216 (100.001,200.000)] data=512 t=79.000000
r 79.256255217 _1_ AGT  --- 119 LAR 548 [13a 1 0 800] ------- [0:254 1:254 32 1] LAR [D B] src[0 (100.001,200.000)] to[1 (388.999,200.000) s=0.000 t=50.001444] h=2 last[16777216 (100.001,200.000)] data=512 t=79.250000
r 79.506221123 _1_ AGT  --- 120 LAR 548 [13a 1 0 800] ------- [0:254 1:254 32 1] LAR [D B] src[0 (100.001,200.000)] to[1 (388.999,200.000) s=0.000 t=50.001444] h=2 last[16777216 (100.001,200.000)] data=512 t=79.500000
r 79.755942662 _1_ AGT  --- 121 LAR 548 [13a 1 0 800] ------- [0:254 1:254 32 1] LAR [D B] src[0 (100.001,200.000)] to[1 (388.999,200.000) s=0.000 t=50.001444] h=2 last[16777216 (100.001,200.000)] data=512 t=79.750000
r 80.006018585 _1_ AGT  --- 122 LAR 548 [13a 1 0 800] ------- [0:254 1:254 32 1] LAR [D B] src[0 (100.001,200.000)] to[1 (388.999,200.000) s=0.000 t=50.001444] h=2 last[16777216 (100.001,200.000)] data=512 t=80.000000
r 80.256245358 _1_ AGT  --- 123 LAR 548 [13a 1 0 800] ------- [0:254 1:254 32 1] LAR [D B] src[0 (100.001,200.000)] to[1 (388.999,200.000) s=0.000 t=50.001444] h=2 last[16777216 (100.001,200.000)] data=512 t=80.250000
r 80.506084633 _1_ AGT  --- 124 LAR 548 [13a 1 0 800] ------- [0:254 1:254 32 1] LAR [D B] src[0 (100.001,200.000)] to[1 (388.999,200.000) s=0.000 t=50.001444] h=2 last[16777216 (100.001,200.000)] data=512 t=80.500000
r 80.755662891 _1_ AGT  --- 125 LAR 548 [13a 1 0 800] ------- [0:254 1:254 32 1] LAR [D B] src[0 (100.001,200.000)] to[1 (388.999,200.000) s=0.000 t=50.001444] h=2 last[16777216 (100.001,200.000)] data=512 t=80.750000
r 81.006045546 _1_ AGT  --- 126 LAR 548 [13a 1 0 800] ------- [0:254 1:254 32 1] LAR [D B] src[0 (100.001,200.000)] to[1 (388.999,200.000) s=0.000 t=50.001444] h=2 last[16777216 (100.001,200.000)] data=512 t=81.000000
r 81.256174739 _1_ AGT  --- 127 LAR 548 [13a 1 0 800] ------- [0:254 1:254 32 1] LAR [D B] src[0 (100.001,200.000)] to[1 (388.999,200.000) s=0.000 t=50.001444] h=2 last[16777216 (100.001,200.000)] data=512 t=81.250000
r 81.505770687 _1_ AGT  --- 128 LAR 548 [13a 1 0 800] ------- [0:254 1:254 32 1] LAR [D B] src[0 (100.001,200.000)] to[1 (388.999,200.000) s=0.000 t=50.001444] h=2 last[16777216 (100.001,200.000)] data=512 t=81.500000
r 81.755851333 _1_ AGT  --- 129 LAR 548 [13a 1 0 800] ------- [0:254 1:254 32 1] LAR [D B] src[0 (100.001,200.000)] to[1 (388.999,200.000) s=0.000 t=50.001444] h=2 last[16777216 (100.001,200.000)] data=512 t=81.750000
r 82.005986881 _1_ AGT  --- 130 LAR 548 [13a 1 0 800] ------- [0:254 1:254 32 1] LAR [D B] src[0 (100.001,200.000)] to[1 (388.999,200.000) s=0.000 t=50.001444] h=2 last[16777216 (100.001,200.000)] data=512 t=82.000000
r 82.255959615 _1_ AGT  --- 131 LAR 548 [13a 1 0 800] ------- [0:254 1:254 32 1] LAR [D B] src[0 (100.001,200.000)] to[1 (388.999,200.000) s=0.000 t=50.001444] h=2 last[16777216 (100.001,200.000)] data=512 t=82.250000
r 82.505736478 _1_ AGT  --- 132 LAR 548 [13a 1 0 800] ------- [0:254 1:254 32 1] LAR [D B] src[0 (100.001,200.000)] to[1 (388.999,200.000) s=0.000 t=50.001444] h=2 last[16777216 (100.001,200.000)] data=512 t=82.500000
r 82.755870377 _1_ AGT  --- 133 LAR 548 [13a 1 0 800] ------- [0:254 1:254 32 1] LAR [D B] src[0 (100.001,200.000)] to[1 (388.999,200.000) s=0.000 t=50.001444] h=2 last[16777216 (100.001,200.000)] data=512 t=82.750000
r 83.006032679 _1_ AGT  --- 134 LAR 548 [13a 1 0 800] ------- [0:254 1:254 32 1] LAR [D B] src[0 (100.001,200.000)] to[1 (388.999,200.000) s=0.000 t=50.001444] h=2 last[16777216 (100.001,200.000)] data=512 t=83.000000
r 83.256018060 _1_ AGT  --- 135 LAR 548 [13a 1 0 800] ------- [0:254 1:254 32 1] LAR [D B] src[0 (100.001,200.000)] to[1 (388.999,200.000) s=0.000 t=50.001444] h=2 last[16777216 (100.001,200.000)] data=512 t=83.250000