V -t * -v 1.0a5 -a 0
W -t * -x 1000 -y 1000
A -t * -n 1 -p 0 -o 0x7fffffff -c 30 -a 1
A -t * -h 1 -m 1073741823 -s 0
n -t 0.000000 -s 0 -x 100.000000 -y 200.000000 -U 0.000010 -V 0.000000 -T 2000000.000000
n -t 0.000000 -s 1 -x 389.000000 -y 200.000000 -U -0.000010 -V 0.000000 -T 3383078.496048
n -t 0.000000 -s 2 -x 500.000000 -y 200.000000 -U -0.000010 -V 0.000000 -T 9412269.356672
r -t 50.001443737 -s 1 -d -1 -p LAR -e 42 -c 2 -a 0 -i 1 -k RTR
r -t 50.001443737 -s 1 -d -1 -p LAR -e 42 -c 2 -a 0 -i 1 -k AGT
r -t 50.006400150 -s 0 -d 0 -p LAR -e 46 -c 2 -a 0 -i 2 -k AGT
r -t 50.012451040 -s 1 -d 1 -p LAR -e 548 -c 2 -a 0 -i 0 -k AGT
r -t 50.256001988 -s 1 -d 1 -p LAR -e 548 -c 2 -a 0 -i 3 -k AGT
r -t 50.505947360 -s 1 -d 1 -p LAR -e 548 -c 2 -a 0 -i 4 -k AGT
r -t 50.756258220 -s 1 -d 1 -p LAR -e 548 -c 2 -a 0 -i 5 -k AGT
r -t 51.006000682 -s 1 -d 1 -p LAR -e 548 -c 2 -a 0 -i 6 -k AGT
r -t 51.255841986 -s 1 -d 1 -p LAR -e 548 -c 2 -a 0 -i 7 -k AGT
r -t 51.506031006 -s 1 -d 1 -p LAR -e 548 -c 2 -a 0 -i 8 -k AGT
r -t 51.755862306 -s 1 -d 1 -p LAR -e 548 -c 2 -a 0 -i 9 -k AGT
r -t 52.005712246 -s 1 -d 1 -p LAR -e 548 -c 2 -a 0 -i 10 -k AGT
r -t 52.256090209 -s 1 -d 1 -p LAR -e 548 -c 2 -a 0 -i 11 -k AGT
r -t 52.506229345 -s 1 -d 1 -p LAR -e 548 -c 2 -a 0 -i 12 -k AGT
r -t 52.756184808 -s 1 -d 1 -p LAR -e 548 -c 2 -a 0 -i 13 -k AGT
r -t 53.005689652 -s 1 -d 1 -p LAR -e 548 -c 2 -a 0 -i 14 -k AGT
r -t 53.256027605 -s 1 -d 1 -p LAR -e 548 -c 2 -a 0 -i 15 -k AGT
r -t 53.505768340 -s 1 -d 1 -p LAR -e 548 -c 2 -a 0 -i 16 -k AGT
r -t 53.755921549 -s 1 -d 1 -p LAR -e 548 -c 2 -a 0 -i 17 -k AGT
r -t 54.006169522 -s 1 -d 1 -p LAR -e 548 -c 2 -a 0 -i 18 -k AGT
r -t 54.255852295 -s 1 -d 1 -p LAR -e 548 -c 2 -a 0 -i 19 -k AGT
r -t 54.505779734 -s 1 -d 1 -p LAR -e 548 -c 2 -a 0 -i 20 -k AGT
r -t 54.756035774 -s 1 -d 1 -p LAR -e 548 -c 2 -a 0 -i 21 -k AGT
r -t 55.005914070 -s 1 -d 1 -p LAR -e 548 -c 2 -a 0 -i 22 -k AGT
r -t 55.255978473 -s 1 -d 1 -p LAR -e 548 -c 2 -a 0 -i 23 -k AGT
r -t 55.505648077 -s 1 -d 1 -p LAR -e 548 -c 2 -a 0 -i 24 -k AGT
r -t 55.755992713 -s 1 -d 1 -p LAR -e 548 -c 2 -a 0 -i 25 -k AGT
r -t 56.005915414 -s 1 -d 1 -p LAR -e 548 -c 2 -a 0 -i 26 -k AGT
r -t 56.255928367 -s 1 -d 1 -p LAR -e 548 -c 2 -a 0 -i 27 -k AGT
r -t 56.505869127 -s 1 -d 1 -p LAR -e 548 -c 2 -a 0 -i 28 -k AGT
r -t 56.755938299 -s 1 -d 1 -p LAR -e 548 -c 2 -a 0 -i 29 -k AGT
r -t 57.006117861 -s 1 -d 1 -p LAR -e 548 -c 2 -a 0 -i 30 -k AGT
r -t 57.255831901 -s 1 -d 1 -p LAR -e 548 -c 2 -a 0 -i 31 -k AGT
r -t 57.505708969 -s 1 -d 1 -p LAR -e 548 -c 2 -a 0 -i 32 -k AGT
r -t 57.755785204 -s 1 -d 1 -p LAR -e 548 -c 2 -a 0 -i 33 -k AGT
r -t 58.005726999 -s 1 -d 1 -p LAR -e 548 -c 2 -a 0 -i 34 -k AGT
r -t 58.255909439 -s 1 -d 1 -p LAR -e 548 -c 2 -a 0 -i 35 -k AGT
r -t 58.505716534 -s 1 -d 1 -p LAR -e 548 -c 2 -a 0 -i 36 -k AGT
r -t 58.756240792 -s 1 -d 1 -p LAR -e 548 -c 2 -a 0 -i 37 -k AGT
r -t 59.005764535 -s 1 -d 1 -p LAR -e 548 -c 2 -a 0 -i 38 -k AGT
r -t 59.255840650 -s 1 -d 1 -p LAR -e 548 -c 2 -a 0 -i 39 -k AGT
r -t 59.506116207 -s 1 -d 1 -p LAR -e 548 -c 2 -a 0 -i 40 -k AGT
r -t 59.755969891 -s 1 -d 1 -p LAR -e 548 -c 2 -a 0 -i 41 -k AGT
r -t 60.005943970 -s 1 -d 1 -p LAR -e 548 -c 2 -a 0 -i 42 -k AGT
r -t 60.255738663 -s 1 -d 1 -p LAR -e 548 -c 2 -a 0 -i 43 -k AGT
r -t 60.505907810 -s 1 -d 1 -p LAR -e 548 -c 2 -a 0 -i 44 -k AGT
r -t 60.755826732 -s 1 -d 1 -p LAR -e 548 -c 2 -a 0 -i 45 -k AGT
r -t 61.006039377 -s 1 -d 1 -p LAR -e 548 -c 2 -a 0 -i 46 -k AGT
r -t 61.255809260 -s 1 -d 1 -p LAR -e 548 -c 2 -a 0 -i 47 -k AGT
r -t 61.505661391 -s 1 -d 1 -p LAR -e 548 -c 2 -a 0 -i 48 -k AGT
r -t 61.756022010 -s 1 -d 1 -p LAR -e 548 -c 2 -a 0 -i 49 -k AGT
r -t 62.006094665 -s 1 -d 1 -p LAR -e 548 -c 2 -a 0 -i 50 -k AGT
r -t 62.255974235 -s 1 -d 1 -p LAR -e 548 -c 2 -a 0 -i 51 -k AGT
r -t 62.505650894 -s 1 -d 1 -p LAR -e 548 -c 2 -a 0 -i 52 -k AGT
r -t 62.755781844 -s 1 -d 1 -p LAR -e 548 -c 2 -a 0 -i 53 -k AGT
r -t 63.005785818 -s 1 -d 1 -p LAR -e 548 -c 2 -a 0 -i 54 -k AGT
r -t 63.256252081 -s 1 -d 1 -p LAR -e 548 -c 2 -a 0 -i 55 -k AGT
r -t 63.505647667 -s 1 -d 1 -p LAR -e 548 -c 2 -a 0 -i 56 -k AGT
r -t 63.755754342 -s 1 -d 1 -p LAR -e 548 -c 2 -a 0 -i 57 -k AGT
r -t 64.005673558 -s 1 -d 1 -p LAR -e 548 -c 2 -a 0 -i 58 -k AGT
r -t 64.256009904 -s 1 -d 1 -p LAR -e 548 -c 2 -a 0 -i 59 -k AGT
r -t 64.506105751 -s 1 -d 1 -p LAR -e 548 -c 2 -a 0 -i 60 -k AGT
r -t 64.755984529 -s 1 -d 1 -p LAR -e 548 -c 2 -a 0 -i 61 -k AGT
r -t 65.006254915 -s 1 -d 1 -p LAR -e 548 -c 2 -a 0 -i 62 -k AGT
r -t 65.255807830 -s 1 -d 1 -p LAR -e 548 -c 2 -a 0 -i 63 -k AGT
r -t 65.505702843 -s 1 -d 1 -p LAR -e 548 -c 2 -a 0 -i 64 -k AGT
r -t 65.755715025 -s 1 -d 1 -p LAR -e 548 -c 2 -a 0 -i 65 -k AGT
r -t 66.006250379 -s 1 -d 1 -p LAR -e 548 -c 2 -a 0 -i 66 -k AGT
r -t 66.256212488 -s 1 -d 1 -p LAR -e 548 -c 2 -a 0 -i 67 -k AGT
r -t 66.506148927 -s 1 -d 1 -p LAR -e 548 -c 2 -a 0 -i 68 -k AGT
r -t 66.755908024 -s 1 -d 1 -p LAR -e 548 -c 2 -a 0 -i 69 -k AGT
r -t 67.005826248 -s 1 -d 1 -p LAR -e 548 -c 2 -a 0 -i 70 -k AGT
r -t 67.255678244 -s 1 -d 1 -p LAR -e 548 -c 2 -a 0 -i 71 -k AGT
r -t 67.506211025 -s 1 -d 1 -p LAR -e 548 -c 2 -a 0 -i 72 -k AGT
r -t 67.755643328 -s 1 -d 1 -p LAR -e 548 -c 2 -a 0 -i 73 -k AGT
r -t 68.006010017 -s 1 -d 1 -p LAR -e 548 -c 2 -a 0 -i 74 -k AGT
r -t 68.256171945 -s 1 -d 1 -p LAR -e 548 -c 2 -a 0 -i 75 -k AGT
r -t 68.505823169 -s 1 -d 1 -p LAR -e 548 -c 2 -a 0 -i 76 -k AGT
r -t 68.756202504 -s 1 -d 1 -p LAR -e 548 -c 2 -a 0 -i 77 -k AGT
r -t 69.006174314 -s 1 -d 1 -p LAR -e 548 -c 2 -a 0 -i 78 -k AGT
r -t 69.255717671 -s 1 -d 1 -p LAR -e 548 -c 2 -a 0 -i 79 -k AGT
r -t 69.506257624 -s 1 -d 1 -p LAR -e 548 -c 2 -a 0 -i 80 -k AGT
r -t 69.755982089 -s 1 -d 1 -p LAR -e 548 -c 2 -a 0 -i 81 -k AGT
r -t 70.006125016 -s 1 -d 1 -p LAR -e 548 -c 2 -a 0 -i 82 -k AGT
r -t 70.256221628 -s 1 -d 1 -p LAR -e 548 -c 2 -a 0 -i 83 -k AGT
r -t 70.505777043 -s 1 -d 1 -p LAR -e 548 -c 2 -a 0 -i 84 -k AGT
r -t 70.755643944 -s 1 -d 1 -p LAR -e 548 -c 2 -a 0 -i 85 -k AGT
r -t 71.006046818 -s 1 -d 1 -p LAR -e 548 -c 2 -a 0 -i 86 -k AGT
r -t 71.255757821 -s 1 -d 1 -p LAR -e 548 -c 2 -a 0 -i 87 -k AGT
r -t 71.506111396 -s 1 -d 1 -p LAR -e 548 -c 2 -a 0 -i 88 -k AGT
r -t 71.756113486 -s 1 -d 1 -p LAR -e 548 -c 2 -a 0 -i 89 -k AGT
r -t 72.005700835 -s 1 -d 1 -p LAR -e 548 -c 2 -a 0 -i 90 -k AGT
r -t 72.256270257 -s 1 -d 1 -p LAR -e 548 -c 2 -a 0 -i 91 -k AGT
r -t 72.506031125 -s 1 -d 1 -p LAR -e 548 -c 2 -a 0 -i 92 -k AGT
r -t 72.756048861 -s 1 -d 1 -p LAR -e 548 -c 2 -a 0 -i 93 -k AGT
r -t 73.005871197 -s 1 -d 1 -p LAR -e 548 -c 2 -a 0 -i 94 -k AGT
r -t 73.255707079 -s 1 -d 1 -p LAR -e 548 -c 2 -a 0 -i 95 -k AGT
r -t 73.506136996 -s 1 -d 1 -p LAR -e 548 -c 2 -a 0 -i 96 -k AGT
r -t 73.756234685 -s 1 -d 1 -p LAR -e 548 -c 2 -a 0 -i 97 -k AGT
r -t 74.005952677 -s 1 -d 1 -p LAR -e 548 -c 2 -a 0 -i 98 -k AGT
r -t 74.255939032 -s 1 -d 1 -p LAR -e 548 -c 2 -a 0 -i 99 -k AGT
r -t 74.506015819 -s 1 -d 1 -p LAR -e 548 -c 2 -a 0 -i 100 -k AGT
r -t 74.756012035 -s 1 -d 1 -p LAR -e 548 -c 2 -a 0 -i 101 -k AGT
r -t 75.005730386 -s 1 -d 1 -p LAR -e 548 -c 2 -a 0 -i 102 -k AGT
r -t 75.256119954 -s 1 -d 1 -p LAR -e 548 -c 2 -a 0 -i 103 -k AGT
r -t 75.505948472 -s 1 -d 1 -p LAR -e 548 -c 2 -a 0 -i 104 -k AGT
r -t 75.756073513 -s 1 -d 1 -p LAR -e 548 -c 2 -a 0 -i 105 -k AGT
r -t 76.005785009 -s 1 -d 1 -p LAR -e 548 -c 2 -a 0 -i 106 -k AGT
r -t 76.255744752 -s 1 -d 1 -p LAR -e 548 -c 2 -a 0 -i 107 -k AGT
r -t 76.506209127 -s 1 -d 1 -p LAR -e 548 -c 2 -a 0 -i 108 -k AGT
r -t 76.756132433 -s 1 -d 1 -p LAR -e 548 -c 2 -a 0 -i 109 -k AGT
r -t 77.006215532 -s 1 -d 1 -p LAR -e 548 -c 2 -a 0 -i 110 -k AGT
r -t 77.255679860 -s 1 -d 1 -p LAR -e 548 -c 2 -a 0 -i 111 -k AGT
r -t 77.505887632 -s 1 -d 1 -p LAR -e 548 -c 2 -a 0 -i 112 -k AGT
r -t 77.756233658 -s 1 -d 1 -p LAR -e 548 -c 2 -a 0 -i 113 -k AGT
r -t 78.005774598 -s 1 -d 1 -p LAR -e 548 -c 2 -a 0 -i 114 -k AGT
r -t 78.256117786 -s 1 -d 1 -p LAR -e 548 -c 2 -a 0 -i 115 -k AGT
r -t 78.505790712 -s 1 -d 1 -p LAR -e 548 -c 2 -a 0 -i 116 -k AGT
r -t 78.756114526 -s 1 -d 1 -p LAR -e 548 -c 2 -a 0 -i 117 -k AGT
r -t 79.005908716 -s 1 -d 1 -p LAR -e 548 -c 2 -a 0 -i 118 -k AGT
r -t 79.256255217 -s 1 -d 1 -p LAR -e 548 -c 2 -a 0 -i 119 -k AGT
r -t 79.506221123 -s 1 -d 1 -p LAR -e 548 -c 2 -a 0 -i 120 -k AGT
r -t 79.755942662 -s 1 -d 1 -p LAR -e 548 -c 2 -a 0 -i 121 -k AGT
r -t 80.006018585 -s 1 -d 1 -p LAR -e 548 -c 2 -a 0 -i 122 -k AGT
r -t 80.256245358 -s 1 -d 1 -p LAR -e 548 -c 2 -a 0 -i 123 -k AGT
r -t 80.506084633 -s 1 -d 1 -p LAR -e 548 -c 2 -a 0 -i 124 -k AGT
r -t 80.755662891 -s 1 -d 1 -p LAR -e 548 -c 2 -a 0 -i 125 -k AGT
r -t 81.006045546 -s 1 -d 1 -p LAR -e 548 -c 2 -a 0 -i 126 -k AGT
r -t 81.256174739 -s 1 -d 1 -p LAR -e 548 -c 2 -a 0 -i 127 -k AGT
r -t 81.505770687 -s 1 -d 1 -p LAR -e 548 -c 2 -a 0 -i 128 -k AGT
r -t 81.755851333 -s 1 -d 1 -p LAR -e 548 -c 2 -a 0 -i 129 -k AGT
r -t 82.005986881 -s 1 -d 1 -p LAR -e 548 -c 2 -a 0 -i 130 -k AGT
r -t 82.255959615 -s 1 -d 1 -p LAR -e 548 -c 2 -a 0 -i 131 -k AGT
r -t 82.505736478 -s 1 -d 1 -p LAR -e 548 -c 2 -a 0 -i 132 -k AGT
r -t 82.755870377 -s 1 -d 1 -p LAR -e 548 -c 2 -a 0 -i 133 -k AGT
r -t 83.006032679 -s 1 -d 1 -p LAR -e 548 -c 2 -a 0 -i 134 -k AGT
r -t 83.256018060 -s 1 -d 1 -p LAR -e 548 -c 2 -a 0 -i 135 -k AGT
r -t 83.506057000 -s 1 -d 1 -p LAR -e 548 -c 2 -a 0 -i 136 -k AGT
r -t 83.756190798 -s 1 -d 1 -p LAR -e 548 -c 2 -a 0 -i 137 -k AGT
r -t 84.006155922 -s 1 -d 1 -p LAR -e 548 -c 2 -a 0 -i 138 -k AGT
r -t 84.255699237 -s 1 -d 1 -p LAR -e 548 -c 2 -a 0 -i 139 -k AGT
r -t 84.506036341 -s 1 -d 1 -p LAR -e 548 -c 2 -a 0 -i 140 -k AGT
r -t 84.756144564 -s 1 -d 1 -p LAR -e 548 -c 2 -a 0 -i 141 -k AGT
r -t 85.005972208 -s 1 -d 1 -p LAR -e 548 -c 2 -a 0 -i 142 -k AGT
r -t 85.256317083 -s 1 -d 1 -p LAR -e 548 -c 2 -a 0 -i 143 -k AGT
r -t 85.506151332 -s 1 -d 1 -p LAR -e 548 -c 2 -a 0 -i 144 -k AGT
r -t 85.756179916 -s 1 -d 1 -p LAR -e 548 -c 2 -a 0 -i 145 -k AGT
r -t 86.006227979 -s 1 -d 1 -p LAR -e 548 -c 2 -a 0 -i 146 -k AGT
r -t 86.256315153 -s 1 -d 1 -p LAR -e 548 -c 2 -a 0 -i 147 -k AGT
r -t 86.505687552 -s 1 -d 1 -p LAR -e 548 -c 2 -a 0 -i 148 -k AGT
r -t 86.755989805 -s 1 -d 1 -p LAR -e 548 -c 2 -a 0 -i 149 -k AGT
r -t 87.006203481 -s 1 -d 1 -p LAR -e 548 -c 2 -a 0 -i 150 -k AGT
r -t 87.255841785 -s 1 -d 1 -p LAR -e 548 -c 2 -a 0 -i 151 -k AGT
r -t 87.506145577 -s 1 -d 1 -p LAR -e 548 -c 2 -a 0 -i 152 -k AGT
r -t 87.756055175 -s 1 -d 1 -p LAR -e 548 -c 2 -a 0 -i 153 -k AGT
r -t 88.006140253 -s 1 -d 1 -p LAR -e 548 -c 2 -a 0 -i 154 -k AGT
r -t 88.255983320 -s 1 -d 1 -p LAR -e 548 -c 2 -a 0 -i 155 -k AGT
r -t 88.506051177 -s 1 -d 1 -p LAR -e 548 -c 2 -a 0 -i 156 -k AGT
r -t 88.756158909 -s 1 -d 1 -p LAR -e 548 -c 2 -a 0 -i 157 -k AGT
r -t 89.005911168 -s 1 -d 1 -p LAR -e 548 -c 2 -a 0 -i 158 -k AGT
r -t 89.255754973 -s 1 -d 1 -p LAR -e 548 -c 2 -a 0 -i 159 -k AGT
r -t 89.505683352 -s 1 -d 1 -p LAR -e 548 -c 2 -a 0 -i 160 -k AGT
r -t 89.755831159 -s 1 -d 1 -p LAR -e 548 -c 2 -a 0 -i 161 -k AGT
r -t 90.006167699 -s 1 -d 1 -p LAR -e 548 -c 2 -a 0 -i 162 -k AGT
r -t 90.255712940 -s 1 -d 1 -p LAR -e 548 -c 2 -a 0 -i 163 -k AGT
r -t 90.506294647 -s 1 -d 1 -p LAR -e 548 -c 2 -a 0 -i 164 -k AGT
r -t 90.756173488 -s 1 -d 1 -p LAR -e 548 -c 2 -a 0 -i 165 -k AGT
r -t 91.006084110 -s 1 -d 1 -p LAR -e 548 -c 2 -a 0 -i 166 -k AGT
r -t 91.255844757 -s 1 -d 1 -p LAR -e 548 -c 2 -a 0 -i 167 -k AGT
r -t 91.505697396 -s 1 -d 1 -p LAR -e 548 -c 2 -a 0 -i 168 -k AGT
r -t 91.755713141 -s 1 -d 1 -p LAR -e 548 -c 2 -a 0 -i 169 -k AGT
r -t 92.006037104 -s 1 -d 1 -p LAR -e 548 -c 2 -a 0 -i 170 -k AGT
r -t 92.256046847 -s 1 -d 1 -p LAR -e 548 -c 2 -a 0 -i 171 -k AGT
r -t 92.505770815 -s 1 -d 1 -p LAR -e 548 -c 2 -a 0 -i 172 -k AGT
r -t 92.756102421 -s 1 -d 1 -p LAR -e 548 -c 2 -a 0 -i 173 -k AGT
r -t 93.006137040 -s 1 -d 1 -p LAR -e 548 -c 2 -a 0 -i 174 -k AGT
r -t 93.256215257 -s 1 -d 1 -p LAR -e 548 -c 2 -a 0 -i 175 -k AGT
r -t 93.505735447 -s 1 -d 1 -p LAR -e 548 -c 2 -a 0 -i 176 -k AGT
r -t 93.755938129 -s 1 -d 1 -p LAR -e 548 -c 2 -a 0 -i 177 -k AGT
r -t 94.006023520 -s 1 -d 1 -p LAR -e 548 -c 2 -a 0 -i 178 -k AGT
r -t 94.256296109 -s 1 -d 1 -p LAR -e 548 -c 2 -a 0 -i 179 -k AGT
r -t 94.506141044 -s 1 -d 1 -p LAR -e 548 -c 2 -a 0 -i 180 -k AGT
r -t 94.755800111 -s 1 -d 1 -p LAR -e 548 -c 2 -a 0 -i 181 -k AGT
r -t 95.006251004 -s 1 -d 1 -p LAR -e 548 -c 2 -a 0 -i 182 -k AGT
r -t 95.256319731 -s 1 -d 1 -p LAR -e 548 -c 2 -a 0 -i 183 -k AGT
r -t 95.506088397 -s 1 -d 1 -p LAR -e 548 -c 2 -a 0 -i 184 -k AGT
r -t 95.755884367 -s 1 -d 1 -p LAR -e 548 -c 2 -a 0 -i 185 -k AGT
r -t 96.005696161 -s 1 -d 1 -p LAR -e 548 -c 2 -a 0 -i 186 -k AGT
r -t 96.255672683 -s 1 -d 1 -p LAR -e 548 -c 2 -a 0 -i 187 -k AGT
r -t 96.505636386 -s 1 -d 1 -p LAR -e 548 -c 2 -a 0 -i 188 -k AGT
r -t 96.756120439 -s 1 -d 1 -p LAR -e 548 -c 2 -a 0 -i 189 -k AGT
r -t 97.006180767 -s 1 -d 1 -p LAR -e 548 -c 2 -a 0 -i 190 -k AGT
r -t 97.256252848 -s 1 -d 1 -p LAR -e 548 -c 2 -a 0 -i 191 -k AGT
r -t 97.505884709 -s 1 -d 1 -p LAR -e 548 -c 2 -a 0 -i 192 -k AGT
r -t 97.755881575 -s 1 -d 1 -p LAR -e 548 -c 2 -a 0 -i 193 -k AGT
r -t 98.005938898 -s 1 -d 1 -p LAR -e 548 -c 2 -a 0 -i 194 -k AGT
r -t 98.256272465 -s 1 -d 1 -p LAR -e 548 -c 2 -a 0 -i 195 -k AGT
r -t 98.505688173 -s 1 -d 1 -p LAR -e 548 -c 2 -a 0 -i 196 -k AGT
r -t 98.756236118 -s 1 -d 1 -p LAR -e 548 -c 2 -a 0 -i 197 -k AGT
r -t 99.005770332 -s 1 -d 1 -p LAR -e 548 -c 2 -a 0 -i 198 -k AGT
r -t 99.255898679 -s 1 -d 1 -p LAR -e 548 -c 2 -a 0 -i 199 -k AGT
r -t 99.505882369 -s 1 -d 1 -p LAR -e 548 -c 2 -a 0 -i 200 -k AGT
r -t 99.755820546 -s 1 -d 1 -p LAR -e 548 -c 2 -a 0 -i 201 -k AGT
r -t 100.006198636 -s 1 -d 1 -p LAR -e 548 -c 2 -a 0 -i 202 -k AGT
r -t 100.256206295 -s 1 -d 1 -p LAR -e 548 -c 2 -a 0 -i 203 -k AGT
r -t 100.506096077 -s 1 -d 1 -p LAR -e 548 -c 2 -a 0 -i 204 -k AGT
r -t 100.755828786 -s 1 -d 1 -p LAR -e 548 -c 2 -a 0 -i 205 -k AGT
r -t 101.005894662 -s 1 -d 1 -p LAR -e 548 -c 2 -a 0 -i 206 -k AGT
r -t 101.256064635 -s 1 -d 1 -p LAR -e 548 -c 2 -a 0 -i 207 -k AGT
r -t 101.505880025 -s 1 -d 1 -p LAR -e 548 -c 2 -a 0 -i 208 -k AGT
r -t 101.755671292 -s 1 -d 1 -p LAR -e 548 -c 2 -a 0 -i 209 -k AGT
r -t 102.005733854 -s 1 -d 1 -p LAR -e 548 -c 2 -a 0 -i 210 -k AGT
r -t 102.255914179 -s 1 -d 1 -p LAR -e 548 -c 2 -a 0 -i 211 -k AGT
r -t 102.505924513 -s 1 -d 1 -p LAR -e 548 -c 2 -a 0 -i 212 -k AGT
r -t 102.756157968 -s 1 -d 1 -p LAR -e 548 -c 2 -a 0 -i 213 -k AGT
r -t 103.005667020 -s 1 -d 1 -p LAR -e 548 -c 2 -a 0 -i 214 -k AGT
r -t 103.255786020 -s 1 -d 1 -p LAR -e 548 -c 2 -a 0 -i 215 -k AGT
r -t 103.505855445 -s 1 -d 1 -p LAR -e 548 -c 2 -a 0 -i 216 -k AGT
r -t 103.756216290 -s 1 -d 1 -p LAR -e 548 -c 2 -a 0 -i 217 -k AGT
r -t 104.005971813 -s 1 -d 1 -p LAR -e 548 -c 2 -a 0 -i 218 -k AGT
r -t 104.255964941 -s 1 -d 1 -p LAR -e 548 -c 2 -a 0 -i 219 -k AGT
r -t 104.505829840 -s 1 -d 1 -p LAR -e 548 -c 2 -a 0 -i 220 -k AGT
r -t 104.755765690 -s 1 -d 1 -p LAR -e 548 -c 2 -a 0 -i 221 -k AGT
r -t 105.006110899 -s 1 -d 1 -p LAR -e 548 -c 2 -a 0 -i 222 -k AGT
r -t 105.255747658 -s 1 -d 1 -p LAR -e 548 -c 2 -a 0 -i 223 -k AGT
r -t 105.505680375 -s 1 -d 1 -p LAR -e 548 -c 2 -a 0 -i 224 -k AGT
r -t 105.756182907 -s 1 -d 1 -p LAR -e 548 -c 2 -a 0 -i 225 -k AGT
r -t 106.006053234 -s 1 -d 1 -p LAR -e 548 -c 2 -a 0 -i 226 -k AGT
r -t 106.256221658 -s 1 -d 1 -p LAR -e 548 -c 2 -a 0 -i 227 -k AGT
r -t 106.505872135 -s 1 -d 1 -p LAR -e 548 -c 2 -a 0 -i 228 -k AGT
r -t 106.755876676 -s 1 -d 1 -p LAR -e 548 -c 2 -a 0 -i 229 -k AGT
r -t 107.005813448 -s 1 -d 1 -p LAR -e 548 -c 2 -a 0 -i 230 -k AGT
r -t 107.256127614 -s 1 -d 1 -p LAR -e 548 -c 2 -a 0 -i 231 -k AGT
r -t 107.505970332 -s 1 -d 1 -p LAR -e 548 -c 2 -a 0 -i 232 -k AGT
r -t 107.756265194 -s 1 -d 1 -p LAR -e 548 -c 2 -a 0 -i 233 -k AGT
r -t 108.005927019 -s 1 -d 1 -p LAR -e 548 -c 2 -a 0 -i 234 -k AGT
r -t 108.255839519 -s 1 -d 1 -p LAR -e 548 -c 2 -a 0 -i 235 -k AGT
r -t 108.505827090 -s 1 -d 1 -p LAR -e 548 -c 2 -a 0 -i 236 -k AGT
r -t 108.756154791 -s 1 -d 1 -p LAR -e 548 -c 2 -a 0 -i 237 -k AGT
r -t 109.005717264 -s 1 -d 1 -p LAR -e 548 -c 2 -a 0 -i 238 -k AGT
r -t 109.256180224 -s 1 -d 1 -p LAR -e 548 -c 2 -a 0 -i 239 -k AGT
r -t 109.505959193 -s 1 -d 1 -p LAR -e 548 -c 2 -a 0 -i 240 -k AGT
r -t 109.756084228 -s 1 -d 1 -p LAR -e 548 -c 2 -a 0 -i 241 -k AGT
r -t 110.006267513 -s 1 -d 1 -p LAR -e 548 -c 2 -a 0 -i 242 -k AGT
r -t 110.256176816 -s 1 -d 1 -p LAR -e 548 -c 2 -a 0 -i 243 -k AGT
r -t 110.505855306 -s 1 -d 1 -p LAR -e 548 -c 2 -a 0 -i 244 -k AGT
r -t 110.756227642 -s 1 -d 1 -p LAR -e 548 -c 2 -a 0 -i 245 -k AGT
r -t 111.005795946 -s 1 -d 1 -p LAR -e 548 -c 2 -a 0 -i 246 -k AGT
r -t 111.256263862 -s 1 -d 1 -p LAR -e 548 -c 2 -a 0 -i 247 -k AGT
r -t 111.505877043 -s 1 -d 1 -p LAR -e 548 -c 2 -a 0 -i 248 -k AGT
r -t 111.755660870 -s 1 -d 1 -p LAR -e 548 -c 2 -a 0 -i 249 -k AGT
r -t 112.006101913 -s 1 -d 1 -p LAR -e 548 -c 2 -a 0 -i 250 -k AGT
r -t 112.256219992 -s 1 -d 1 -p LAR -e 548 -c 2 -a 0 -i 251 -k AGT
r -t 112.506239670 -s 1 -d 1 -p LAR -e 548 -c 2 -a 0 -i 252 -k AGT
r -t 112.756185922 -s 1 -d 1 -p LAR -e 548 -c 2 -a 0 -i 253 -k AGT
r -t 113.006160761 -s 1 -d 1 -p LAR -e 548 -c 2 -a 0 -i 254 -k AGT
r -t 113.255653155 -s 1 -d 1 -p LAR -e 548 -c 2 -a 0 -i 255 -k AGT
r -t 113.506101939 -s 1 -d 1 -p LAR -e 548 -c 2 -a 0 -i 256 -k AGT
r -t 113.756247105 -s 1 -d 1 -p LAR -e 548 -c 2 -a 0 -i 257 -k AGT
r -t 114.006087923 -s 1 -d 1 -p LAR -e 548 -c 2 -a 0 -i 258 -k AGT
r -t 114.255947184 -s 1 -d 1 -p LAR -e 548 -c 2 -a 0 -i 259 -k AGT
r -t 114.505896891 -s 1 -d 1 -p LAR -e 548 -c 2 -a 0 -i 260 -k AGT
r -t 114.756154481 -s 1 -d 1 -p LAR -e 548 -c 2 -a 0 -i 261 -k AGT
r -t 115.006147909 -s 1 -d 1 -p LAR -e 548 -c 2 -a 0 -i 262 -k AGT
r -t 115.256000333 -s 1 -d 1 -p LAR -e 548 -c 2 -a 0 -i 263 -k AGT
r -t 115.505812784 -s 1 -d 1 -p LAR -e 548 -c 2 -a 0 -i 264 -k AGT
r -t 115.755768038 -s 1 -d 1 -p LAR -e 548 -c 2 -a 0 -i 265 -k AGT
r -t 116.005952962 -s 1 -d 1 -p LAR -e 548 -c 2 -a 0 -i 266 -k AGT
r -t 116.256052984 -s 1 -d 1 -p LAR -e 548 -c 2 -a 0 -i 267 -k AGT
r -t 116.505715938 -s 1 -d 1 -p LAR -e 548 -c 2 -a 0 -i 268 -k AGT
r -t 116.756203336 -s 1 -d 1 -p LAR -e 548 -c 2 -a 0 -i 269 -k AGT
r -t 117.005886318 -s 1 -d 1 -p LAR -e 548 -c 2 -a 0 -i 270 -k AGT
r -t 117.255988241 -s 1 -d 1 -p LAR -e 548 -c 2 -a 0 -i 271 -k AGT
r -t 117.506300675 -s 1 -d 1 -p LAR -e 548 -c 2 -a 0 -i 272 -k AGT
r -t 117.755986941 -s 1 -d 1 -p LAR -e 548 -c 2 -a 0 -i 273 -k AGT
r -t 118.005898168 -s 1 -d 1 -p LAR -e 548 -c 2 -a 0 -i 274 -k AGT
r -t 118.255749091 -s 1 -d 1 -p LAR -e 548 -c 2 -a 0 -i 275 -k AGT
r -t 118.505687693 -s 1 -d 1 -p LAR -e 548 -c 2 -a 0 -i 276 -k AGT
r -t 118.755727224 -s 1 -d 1 -p LAR -e 548 -c 2 -a 0 -i 277 -k AGT
r -t 119.005986063 -s 1 -d 1 -p LAR -e 548 -c 2 -a 0 -i 278 -k AGT
r -t 119.255697846 -s 1 -d 1 -p LAR -e 548 -c 2 -a 0 -i 279 -k AGT
r -t 119.505861204 -s 1 -d 1 -p LAR -e 548 -c 2 -a 0 -i 280 -k AGT
r -t 119.756001085 -s 1 -d 1 -p LAR -e 548 -c 2 -a 0 -i 281 -k AGT
r -t 120.006090949 -s 1 -d 1 -p LAR -e 548 -c 2 -a 0 -i 282 -k AGT
r -t 120.256113984 -s 1 -d 1 -p LAR -e 548 -c 2 -a 0 -i 283 -k AGT
r -t 120.505680117 -s 1 -d 1 -p LAR -e 548 -c 2 -a 0 -i 284 -k AGT
r -t 120.756204820 -s 1 -d 1 -p LAR -e 548 -c 2 -a 0 -i 285 -k AGT
r -t 121.006120248 -s 1 -d 1 -p LAR -e 548 -c 2 -a 0 -i 286 -k AGT
r -t 121.255875166 -s 1 -d 1 -p LAR -e 548 -c 2 -a 0 -i 287 -k AGT
r -t 121.506085034 -s 1 -d 1 -p LAR -e 548 -c 2 -a 0 -i 288 -k AGT
r -t 121.755681282 -s 1 -d 1 -p LAR -e 548 -c 2 -a 0 -i 289 -k AGT
r -t 122.005995460 -s 1 -d 1 -p LAR -e 548 -c 2 -a 0 -i 290 -k AGT
r -t 122.255895035 -s 1 -d 1 -p LAR -e 548 -c 2 -a 0 -i 291 -k AGT
r -t 122.505908872 -s 1 -d 1 -p LAR -e 548 -c 2 -a 0 -i 292 -k AGT
r -t 122.756276479 -s 1 -d 1 -p LAR -e 548 -c 2 -a 0 -i 293 -k AGT
r -t 123.005728478 -s 1 -d 1 -p LAR -e 548 -c 2 -a 0 -i 294 -k AGT
r -t 123.256034766 -s 1 -d 1 -p LAR -e 548 -c 2 -a 0 -i 295 -k AGT
r -t 123.506217626 -s 1 -d 1 -p LAR -e 548 -c 2 -a 0 -i 296 -k AGT
r -t 123.755714550 -s 1 -d 1 -p LAR -e 548 -c 2 -a 0 -i 297 -k AGT
r -t 124.006100860 -s 1 -d 1 -p LAR -e 548 -c 2 -a 0 -i 298 -k AGT
r -t 124.255966675 -s 1 -d 1 -p LAR -e 548 -c 2 -a 0 -i 299 -k AGT
r -t 124.506110997 -s 1 -d 1 -p LAR -e 548 -c 2 -a 0 -i 300 -k AGT
r -t 124.755960288 -s 1 -d 1 -p LAR -e 548 -c 2 -a 0 -i 301 -k AGT
r -t 125.006128026 -s 1 -d 1 -p LAR -e 548 -c 2 -a 0 -i 302 -k AGT
r -t 125.256004781 -s 1 -d 1 -p LAR -e 548 -c 2 -a 0 -i 303 -k AGT
r -t 125.506140339 -s 1 -d 1 -p LAR -e 548 -c 2 -a 0 -i 304 -k AGT
r -t 125.755859304 -s 1 -d 1 -p LAR -e 548 -c 2 -a 0 -i 305 -k AGT
r -t 126.005806982 -s 1 -d 1 -p LAR -e 548 -c 2 -a 0 -i 306 -k AGT
r -t 126.256041143 -s 1 -d 1 -p LAR -e 548 -c 2 -a 0 -i 307 -k AGT
r -t 126.505699639 -s 1 -d 1 -p LAR -e 548 -c 2 -a 0 -i 308 -k AGT
r -t 126.756186155 -s 1 -d 1 -p LAR -e 548 -c 2 -a 0 -i 309 -k AGT
r -t 127.005892099 -s 1 -d 1 -p LAR -e 548 -c 2 -a 0 -i 310 -k AGT
r -t 127.255973953 -s 1 -d 1 -p LAR -e 548 -c 2 -a 0 -i 311 -k AGT
r -t 127.506220350 -s 1 -d 1 -p LAR -e 548 -c 2 -a 0 -i 312 -k AGT
r -t 127.755776158 -s 1 -d 1 -p LAR -e 548 -c 2 -a 0 -i 313 -k AGT
r -t 128.005921047 -s 1 -d 1 -p LAR -e 548 -c 2 -a 0 -i 314 -k AGT
r -t 128.256293577 -s 1 -d 1 -p LAR -e 548 -c 2 -a 0 -i 315 -k AGT
r -t 128.506154088 -s 1 -d 1 -p LAR -e 548 -c 2 -a 0 -i 316 -k AGT
r -t 128.756274405 -s 1 -d 1 -p LAR -e 548 -c 2 -a 0 -i 317 -k AGT
r -t 129.005661853 -s 1 -d 1 -p LAR -e 548 -c 2 -a 0 -i 318 -k AGT
r -t 129.256092232 -s 1 -d 1 -p LAR -e 548 -c 2 -a 0 -i 319 -k AGT
r -t 129.506068797 -s 1 -d 1 -p LAR -e 548 -c 2 -a 0 -i 320 -k AGT
r -t 129.755930423 -s 1 -d 1 -p LAR -e 548 -c 2 -a 0 -i 321 -k AGT
r -t 130.006260377 -s 1 -d 1 -p LAR -e 548 -c 2 -a 0 -i 322 -k AGT
r -t 130.256050779 -s 1 -d 1 -p LAR -e 548 -c 2 -a 0 -i 323 -k AGT
r -t 130.505780012 -s 1 -d 1 -p LAR -e 548 -c 2 -a 0 -i 324 -k AGT
r -t 130.756041966 -s 1 -d 1 -p LAR -e 548 -c 2 -a 0 -i 325 -k AGT
r -t 131.005998655 -s 1 -d 1 -p LAR -e 548 -c 2 -a 0 -i 326 -k AGT
r -t 131.256050748 -s 1 -d 1 -p LAR -e 548 -c 2 -a 0 -i 327 -k AGT
r -t 131.505769626 -s 1 -d 1 -p LAR -e 548 -c 2 -a 0 -i 328 -k AGT
r -t 131.756012626 -s 1 -d 1 -p LAR -e 548 -c 2 -a 0 -i 329 -k AGT
r -t 132.006050533 -s 1 -d 1 -p LAR -e 548 -c 2 -a 0 -i 330 -k AGT
r -t 132.255993733 -s 1 -d 1 -p LAR -e 548 -c 2 -a 0 -i 331 -k AGT
r -t 132.505986024 -s 1 -d 1 -p LAR -e 548 -c 2 -a 0 -i 332 -k AGT
r -t 132.756191669 -s 1 -d 1 -p LAR -e 548 -c 2 -a 0 -i 333 -k AGT
r -t 133.005871624 -s 1 -d 1 -p LAR -e 548 -c 2 -a 0 -i 334 -k AGT
r -t 133.255819474 -s 1 -d 1 -p LAR -e 548 -c 2 -a 0 -i 335 -k AGT
r -t 133.506024084 -s 1 -d 1 -p LAR -e 548 -c 2 -a 0 -i 336 -k AGT
r -t 133.756031717 -s 1 -d 1 -p LAR -e 548 -c 2 -a 0 -i 337 -k AGT
r -t 134.006253727 -s 1 -d 1 -p LAR -e 548 -c 2 -a 0 -i 338 -k AGT
r -t 134.255776832 -s 1 -d 1 -p LAR -e 548 -c 2 -a 0 -i 339 -k AGT
r -t 134.506170982 -s 1 -d 1 -p LAR -e 548 -c 2 -a 0 -i 340 -k AGT
r -t 134.755978936 -s 1 -d 1 -p LAR -e 548 -c 2 -a 0 -i 341 -k AGT
r -t 135.005863895 -s 1 -d 1 -p LAR -e 548 -c 2 -a 0 -i 342 -k AGT
r -t 135.255864442 -s 1 -d 1 -p LAR -e 548 -c 2 -a 0 -i 343 -k AGT
r -t 135.505928204 -s 1 -d 1 -p LAR -e 548 -c 2 -a 0 -i 344 -k AGT
r -t 135.755858051 -s 1 -d 1 -p LAR -e 548 -c 2 -a 0 -i 345 -k AGT
r -t 136.006111129 -s 1 -d 1 -p LAR -e 548 -c 2 -a 0 -i 346 -k AGT
r -t 136.255995401 -s 1 -d 1 -p LAR -e 548 -c 2 -a 0 -i 347 -k AGT
r -t 136.506085567 -s 1 -d 1 -p LAR -e 548 -c 2 -a 0 -i 348 -k AGT
r -t 136.756206093 -s 1 -d 1 -p LAR -e 548 -c 2 -a 0 -i 349 -k AGT
r -t 137.005720744 -s 1 -d 1 -p LAR -e 548 -c 2 -a 0 -i 350 -k AGT
r -t 137.256247473 -s 1 -d 1 -p LAR -e 548 -c 2 -a 0 -i 351 -k AGT
r -t 137.506149626 -s 1 -d 1 -p LAR -e 548 -c 2 -a 0 -i 352 -k AGT
r -t 137.756154231 -s 1 -d 1 -p LAR -e 548 -c 2 -a 0 -i 353 -k AGT
r -t 138.005971362 -s 1 -d 1 -p LAR -e 548 -c 2 -a 0 -i 354 -k AGT
r -t 138.256062748 -s 1 -d 1 -p LAR -e 548 -c 2 -a 0 -i 355 -k AGT
r -t 138.505829307 -s 1 -d 1 -p LAR -e 548 -c 2 -a 0 -i 356 -k AGT
r -t 138.756183128 -s 1 -d 1 -p LAR -e 548 -c 2 -a 0 -i 357 -k AGT
r -t 139.005746606 -s 1 -d 1 -p LAR -e 548 -c 2 -a 0 -i 358 -k AGT
r -t 139.256072043 -s 1 -d 1 -p LAR -e 548 -c 2 -a 0 -i 359 -k AGT
r -t 139.505988863 -s 1 -d 1 -p LAR -e 548 -c 2 -a 0 -i 360 -k AGT
r -t 139.756090249 -s 1 -d 1 -p LAR -e 548 -c 2 -a 0 -i 361 -k AGT
r -t 140.005838886 -s 1 -d 1 -p LAR -e 548 -c 2 -a 0 -i 362 -k AGT
r -t 140.255967998 -s 1 -d 1 -p LAR -e 548 -c 2 -a 0 -i 363 -k AGT
r -t 140.505775029 -s 1 -d 1 -p LAR -e 548 -c 2 -a 0 -i 364 -k AGT
r -t 140.755743620 -s 1 -d 1 -p LAR -e 548 -c 2 -a 0 -i 365 -k AGT
r -t 141.006080581 -s 1 -d 1 -p LAR -e 548 -c 2 -a 0 -i 366 -k AGT
r -t 141.255892222 -s 1 -d 1 -p LAR -e 548 -c 2 -a 0 -i 367 -k AGT
r -t 141.505788447 -s 1 -d 1 -p LAR -e 548 -c 2 -a 0 -i 368 -k AGT
r -t 141.756107418 -s 1 -d 1 -p LAR -e 548 -c 2 -a 0 -i 369 -k AGT
r -t 142.006222165 -s 1 -d 1 -p LAR -e 548 -c 2 -a 0 -i 370 -k AGT
r -t 142.255952539 -s 1 -d 1 -p LAR -e 548 -c 2 -a 0 -i 371 -k AGT
r -t 142.506219464 -s 1 -d 1 -p LAR -e 548 -c 2 -a 0 -i 372 -k AGT
r -t 142.755859169 -s 1 -d 1 -p LAR -e 548 -c 2 -a 0 -i 373 -k AGT
r -t 143.006030091 -s 1 -d 1 -p LAR -e 548 -c 2 -a 0 -i 374 -k AGT
r -t 143.256300778 -s 1 -d 1 -p LAR -e 548 -c 2 -a 0 -i 375 -k AGT
r -t 143.505910331 -s 1 -d 1 -p LAR -e 548 -c 2 -a 0 -i 376 -k AGT
r -t 143.756214331 -s 1 -d 1 -p LAR -e 548 -c 2 -a 0 -i 377 -k AGT
r -t 144.005889289 -s 1 -d 1 -p LAR -e 548 -c 2 -a 0 -i 378 -k AGT
r -t 144.255849008 -s 1 -d 1 -p LAR -e 548 -c 2 -a 0 -i 379 -k AGT
r -t 144.506273533 -s 1 -d 1 -p LAR -e 548 -c 2 -a 0 -i 380 -k AGT
r -t 144.755903143 -s 1 -d 1 -p LAR -e 548 -c 2 -a 0 -i 381 -k AGT
r -t 145.005829591 -s 1 -d 1 -p LAR -e 548 -c 2 -a 0 -i 382 -k AGT
r -t 145.256296269 -s 1 -d 1 -p LAR -e 548 -c 2 -a 0 -i 383 -k AGT
r -t 145.505830484 -s 1 -d 1 -p LAR -e 548 -c 2 -a 0 -i 384 -k AGT
r -t 145.755974063 -s 1 -d 1 -p LAR -e 548 -c 2 -a 0 -i 385 -k AGT
r -t 146.006232127 -s 1 -d 1 -p LAR -e 548 -c 2 -a 0 -i 386 -k AGT
r -t 146.256212900 -s 1 -d 1 -p LAR -e 548 -c 2 -a 0 -i 387 -k AGT
r -t 146.505810301 -s 1 -d 1 -p LAR -e 548 -c 2 -a 0 -i 388 -k AGT
r -t 146.756231844 -s 1 -d 1 -p LAR -e 548 -c 2 -a 0 -i 389 -k AGT
r -t 147.006178053 -s 1 -d 1 -p LAR -e 548 -c 2 -a 0 -i 390 -k AGT
r -t 147.255912274 -s 1 -d 1 -p LAR -e 548 -c 2 -a 0 -i 391 -k AGT
r -t 147.506035203 -s 1 -d 1 -p LAR -e 548 -c 2 -a 0 -i 392 -k AGT
r -t 147.756210049 -s 1 -d 1 -p LAR -e 548 -c 2 -a 0 -i 393 -k AGT
r -t 148.005673381 -s 1 -d 1 -p LAR -e 548 -c 2 -a 0 -i 394 -k AGT
r -t 148.256103342 -s 1 -d 1 -p LAR -e 548 -c 2 -a 0 -i 395 -k AGT
r -t 148.506026779 -s 1 -d 1 -p LAR -e 548 -c 2 -a 0 -i 396 -k AGT
r -t 148.755847073 -s 1 -d 1 -p LAR -e 548 -c 2 -a 0 -i 397 -k AGT
r -t 149.005808674 -s 1 -d 1 -p LAR -e 548 -c 2 -a 0 -i 398 -k AGT
r -t 149.255788336 -s 1 -d 1 -p LAR -e 548 -c 2 -a 0 -i 399 -k AGT
r -t 149.506187601 -s 1 -d 1 -p LAR -e 548 -c 2 -a 0 -i 400 -k AGT
r -t 149.755743949 -s 1 -d 1 -p LAR -e 548 -c 2 -a 0 -i 401 -k AGT
r -t 150.006013985 -s 1 -d 1 -p LAR -e 548 -c 2 -a 0 -i 402 -k AGT
r -t 150.256280175 -s 1 -d 1 -p LAR -e 548 -c 2 -a 0 -i 403 -k AGT
r -t 150.505716228 -s 1 -d 1 -p LAR -e 548 -c 2 -a 0 -i 404 -k AGT
r -t 150.755697187 -s 1 -d 1 -p LAR -e 548 -c 2 -a 0 -i 405 -k AGT
r -t 151.006194062 -s 1 -d 1 -p LAR -e 548 -c 2 -a 0 -i 406 -k AGT
r -t 151.256139669 -s 1 -d 1 -p LAR -e 548 -c 2 -a 0 -i 407 -k AGT
r -t 151.506204627 -s 1 -d 1 -p LAR -e 548 -c 2 -a 0 -i 408 -k AGT
r -t 151.756076462 -s 1 -d 1 -p LAR -e 548 -c 2 -a 0 -i 409 -k AGT
r -t 152.006081787 -s 1 -d 1 -p LAR -e 548 -c 2 -a 0 -i 410 -k AGT
r -t 152.255711271 -s 1 -d 1 -p LAR -e 548 -c 2 -a 0 -i 411 -k AGT
r -t 152.506232714 -s 1 -d 1 -p LAR -e 548 -c 2 -a 0 -i 412 -k AGT
r -t 152.756144488 -s 1 -d 1 -p LAR -e 548 -c 2 -a 0 -i 413 -k AGT
r -t 153.006000650 -s 1 -d 1 -p LAR -e 548 -c 2 -a 0 -i 414 -k AGT
r -t 153.255936308 -s 1 -d 1 -p LAR -e 548 -c 2 -a 0 -i 415 -k AGT
r -t 153.505891661 -s 1 -d 1 -p LAR -e 548 -c 2 -a 0 -i 416 -k AGT
r -t 153.755865887 -s 1 -d 1 -p LAR -e 548 -c 2 -a 0 -i 417 -k AGT
r -t 154.006262319 -s 1 -d 1 -p LAR -e 548 -c 2 -a 0 -i 418 -k AGT
r -t 154.255655071 -s 1 -d 1 -p LAR -e 548 -c 2 -a 0 -i 419 -k AGT
r -t 154.506270841 -s 1 -d 1 -p LAR -e 548 -c 2 -a 0 -i 420 -k AGT
r -t 154.755873482 -s 1 -d 1 -p LAR -e 548 -c 2 -a 0 -i 421 -k AGT
r -t 155.006160455 -s 1 -d 1 -p LAR -e 548 -c 2 -a 0 -i 422 -k AGT
r -t 155.256239154 -s 1 -d 1 -p LAR -e 548 -c 2 -a 0 -i 423 -k AGT
r -t 155.505756641 -s 1 -d 1 -p LAR -e 548 -c 2 -a 0 -i 424 -k AGT
r -t 155.755946946 -s 1 -d 1 -p LAR -e 548 -c 2 -a 0 -i 425 -k AGT
r -t 156.006055605 -s 1 -d 1 -p LAR -e 548 -c 2 -a 0 -i 426 -k AGT
r -t 156.255876530 -s 1 -d 1 -p LAR -e 548 -c 2 -a 0 -i 427 -k AGT
r -t 156.505707129 -s 1 -d 1 -p LAR -e 548 -c 2 -a 0 -i 428 -k AGT
r -t 156.756117389 -s 1 -d 1 -p LAR -e 548 -c 2 -a 0 -i 429 -k AGT
r -t 157.005917977 -s 1 -d 1 -p LAR -e 548 -c 2 -a 0 -i 430 -k AGT
r -t 157.256207840 -s 1 -d 1 -p LAR -e 548 -c 2 -a 0 -i 431 -k AGT
r -t 157.506214448 -s 1 -d 1 -p LAR -e 548 -c 2 -a 0 -i 432 -k AGT
r -t 157.755865072 -s 1 -d 1 -p LAR -e 548 -c 2 -a 0 -i 433 -k AGT
r -t 158.005881125 -s 1 -d 1 -p LAR -e 548 -c 2 -a 0 -i 434 -k AGT
r -t 158.256263786 -s 1 -d 1 -p LAR -e 548 -c 2 -a 0 -i 435 -k AGT
r -t 158.506035369 -s 1 -d 1 -p LAR -e 548 -c 2 -a 0 -i 436 -k AGT
r -t 158.755748297 -s 1 -d 1 -p LAR -e 548 -c 2 -a 0 -i 437 -k AGT
r -t 159.006016566 -s 1 -d 1 -p LAR -e 548 -c 2 -a 0 -i 438 -k AGT
r -t 159.255733107 -s 1 -d 1 -p LAR -e 548 -c 2 -a 0 -i 439 -k AGT
r -t 159.505817869 -s 1 -d 1 -p LAR -e 548 -c 2 -a 0 -i 440 -k AGT
r -t 159.756051462 -s 1 -d 1 -p LAR -e 548 -c 2 -a 0 -i 441 -k AGT
r -t 160.005817487 -s 1 -d 1 -p LAR -e 548 -c 2 -a 0 -i 442 -k AGT
r -t 160.256143694 -s 1 -d 1 -p LAR -e 548 -c 2 -a 0 -i 443 -k AGT
r -t 160.505849060 -s 1 -d 1 -p LAR -e 548 -c 2 -a 0 -i 444 -k AGT